
 Primary working directories    : /work/tmp/ahs/molpro_20722
 Secondary working directories  : /work/tmp/ahs/molpro_20722
 Wavefunction directory         : /home/user/ahs/jobs/phenol/6311ppgdp/
 Main file repository           : /work/tmp/ahs/molpro_20722/
 
 cpu       : P4 2992.575 MHz
 FC        : /opt/intel/fce/10.1.008/bin/ifort
 FCVERSION : 10.1
 BLASLIB   : -L/opt/intel/mkl/9.1/lib/em64t -lmkl_em64t -lguide -lpthread -openmp
 id        : sandiaco

 MPP nodes nproc
 leggero      1
 ga_uses_ma=false, calling ma_init with nominal heap.
 GA-space will be limited to   8.0 MW (determined by -G option)

 MPP tuning parameters: Latency=     0 Microseconds,   Broadcast speed=    0 MB/sec
 default implementation of scratch files=df  

 ***,Phenol
 memory,128,m
 file,2,perp_c1_scan_dir_r_2.wfu,new
  
 B1=1.400
 B2=1.400
 B3=1.398
 B4=1.401
 B5=1.397
 B6=1.371
  
 B8=1.089
 B9=1.087
 B10=1.086
 B11=1.087
 B12=1.086
 A1=119.76
 A2=120.41
 A3=119.38
 A4=120.63
 A5=122.71
 A6=108.39
 A7=120.01
 A8=119.34
 A9=120.27
 A10=120.06
 A11=121.45
 D1=0.0
 D2=0.0
 D3=0.0
 D4=180.0
 D5=90.0
 D6=180.0
 D7=180.0
 D8=180.0
 D9=180.0
 D10=180.0
  
 B7VEC=[1.31, 1.32, 1.33, 1.34, 1.35]
 B7=B7VEC(1)
  
 geometry={angstrom;
 C
 C 1 B1
 C 2 B2 1 A1
 C 3 B3 2 A2 1 D1
 C 4 B4 3 A3 2 D2
 C 5 B5 4 A4 3 D3
 O 1 B6 2 A5 3 D4
 H 7 B7 1 A6 2 D5
 H 2 B8 1 A7 6 D6
 H 3 B9 2 A8 1 D7
 H 4 B10 3 A9 2 D8
 H 5 B11 4 A10 3 D9
 H 6 B12 5 A11 4 D10
 }
  
 basis=6-311++G(d,p)
                                                                                 ! default is sperical basis
  
 do n=1,#B7VEC
  
   B7 = B7VEC(n)
  
   hf
   {ccsd;eom,-7.1}
  
   e1(n)=energy(1)
   e2(n)=energy(2)
   e3(n)=energy(3)
   e4(n)=energy(4)
   e5(n)=energy(5)
   e6(n)=energy(6)
   e7(n)=energy(7)
  
 enddo
  
 table,B7VEC,e1,e2,e3,e4,e5,e6,e7
 head,R(OH),E(S0),EX(1.1),EX(2.1),EX(3.1),EX(4.1),EX(5.1),EX(6.1)
 save,perp_c1_scan_dir_r_2.tab
  
 ---

 Variables initialized (599), CPU time= 0.00 sec
 Commands  initialized (355), CPU time= 0.01 sec, 460 directives.
 Default parameters read. Elapsed time= 0.04 sec
 Checking input...
 Passed
1


                                         ***  PROGRAM SYSTEM MOLPRO  ***
                         Copyright, University College Cardiff Consultants Limited, 2004

                                    Version 2008.1 linked 05 Sep 2008 17:39:03


 **********************************************************************************************************************************
 LABEL *   Phenol                                                                        
 Linux-2.6.16.46-0.12-smp/leggero(x86_64) 64 bit mpp version                             DATE:   2-Sep-12         TIME: 22:45:35  
 **********************************************************************************************************************************

 Patch level:      5
 **********************************************************************************************************************************

 Variable memory set to  128000000 words,  buffer space   230000 words
 


 Permanent file  2  perp_c1_scan_dir_r_2.wfu         assigned.  Implementation=df  
 


 **********************************************************************************************************************************
 DATASETS  * FILE   NREC   LENGTH (MB)   RECORD NAMES
              2       1        0.03       500   
                                          VAR  
 
 PROGRAMS   *        TOTAL      FILE
 CPU TIMES  *         0.06      0.00
 REAL TIME  *         0.11 SEC
 DISK USED  *         0.03 MB      
 **********************************************************************************************************************************
 SETTING B1             =         1.40000000                                  
 SETTING B2             =         1.40000000                                  
 SETTING B3             =         1.39800000                                  
 SETTING B4             =         1.40100000                                  
 SETTING B5             =         1.39700000                                  
 SETTING B6             =         1.37100000                                  
 SETTING B8             =         1.08900000                                  
 SETTING B9             =         1.08700000                                  
 SETTING B10            =         1.08600000                                  
 SETTING B11            =         1.08700000                                  
 SETTING B12            =         1.08600000                                  
 SETTING A1             =       119.76000000                                  
 SETTING A2             =       120.41000000                                  
 SETTING A3             =       119.38000000                                  
 SETTING A4             =       120.63000000                                  
 SETTING A5             =       122.71000000                                  
 SETTING A6             =       108.39000000                                  
 SETTING A7             =       120.01000000                                  
 SETTING A8             =       119.34000000                                  
 SETTING A9             =       120.27000000                                  
 SETTING A10            =       120.06000000                                  
 SETTING A11            =       121.45000000                                  
 SETTING D1             =         0.00000000                                  
 SETTING D2             =         0.00000000                                  
 SETTING D3             =         0.00000000                                  
 SETTING D4             =       180.00000000                                  
 SETTING D5             =        90.00000000                                  
 SETTING D6             =       180.00000000                                  
 SETTING D7             =       180.00000000                                  
 SETTING D8             =       180.00000000                                  
 SETTING D9             =       180.00000000                                  
 SETTING D10            =       180.00000000                                  
 SETTING B7VEC(1)       =         1.31000000                                  
 SETTING B7VEC(2)       =         1.32000000                                  
 SETTING B7VEC(3)       =         1.33000000                                  
 SETTING B7VEC(4)       =         1.34000000                                  
 SETTING B7VEC(5)       =         1.35000000                                  
 SETTING B7             =         1.31000000                                  
 SETTING BASIS          =    6-311++G(D,P)

 DO N                   =         1.00000000   
 SETTING B7             =         1.31000000                                  


 Recomputing integrals since basis changed


 Using spherical harmonics

 Library entry C      S 6-311G               selected for orbital group  1
 Library entry C      S 6-311++G             selected for orbital group  1
 Library entry C      P 6-311G               selected for orbital group  1
 Library entry C      P 6-311++G             selected for orbital group  1
 Library entry C      D 6-311G*              selected for orbital group  1
 Library entry O      S 6-311G               selected for orbital group  2
 Library entry O      S 6-311++G             selected for orbital group  2
 Library entry O      P 6-311G               selected for orbital group  2
 Library entry O      P 6-311++G             selected for orbital group  2
 Library entry O      D 6-311G*              selected for orbital group  2
 Library entry H      S 6-311G               selected for orbital group  3
 Library entry H      S 6-311++G             selected for orbital group  3
 Library entry H      P 6-311G**             selected for orbital group  3

1PROGRAM * SEWARD (Integral evaluation for generally contracted gaussian basis sets)     Author: Roland Lindh, 1990

 Geometry written to block  1 of record 700

 Orientation using atomic masses  
 Molecule type: Asymmetric top
 Rotational constants:       2.5784577      1.7820148      5.5804667 GHz

 Point group  C1  



 ATOMIC COORDINATES

 NR  ATOM    CHARGE       X              Y              Z

   1  C       6.00    0.069192112    0.055644133   -1.736730433
   2  C       6.00    2.325304509    0.031346334   -0.355190140
   3  C       6.00    2.245649114   -0.015059417    2.288819813
   4  C       6.00   -0.071967937   -0.037262324    3.556676928
   5  C       6.00   -2.318762299   -0.012636974    2.156463247
   6  C       6.00   -2.258622609    0.033678737   -0.482392637
   7  O       8.00    0.013819690    0.101101751   -4.326554252
   8  H       1.00   -0.002923251   -2.233951477   -5.148473037
   9  H       1.00    4.133752834    0.048542046   -1.337137065
  10  H       1.00    4.005176384   -0.033699244    3.348619734
  11  H       1.00   -0.128745284   -0.073262579    5.607818053
  12  H       1.00   -4.132375158   -0.029523821    3.120819383
  13  H       1.00   -3.984535058    0.053202456   -1.592592910

 Bond lengths in Bohr (Angstrom)

 1-2  2.645616584  1-6  2.644346264  1-7  2.590814526  2-3  2.645616584  2-9  2.057911757
     (1.400000000)     (1.399327776)     (1.371000000)     (1.400000000)     (1.089000000)

  3- 4  2.641837132   3-10  2.054132305   4- 5  2.647506310   4-11  2.052242579   5- 6  2.639947406
       (1.398000000)       (1.087000000)       (1.401000000)       (1.086000000)       (1.397000000)

  5-12  2.054132305   6-13  2.052242579   7- 8  2.475541232
       (1.087000000)       (1.086000000)       (1.310000000)

 Bond angles

  1- 2- 3  119.76000000   1- 2- 9  120.01000000   1- 6- 5  119.62692443   1- 6-13  118.92307557

  1-7-8  108.39000000   2-1-6  120.19307557   2-1-7  122.71000000   2-3-4  120.41000000

  2- 3-10  119.34000000   3- 2- 9  120.23000000   3- 4- 5  119.38000000   3- 4-11  120.27000000

  4- 3-10  120.25000000   4- 5- 6  120.63000000   4- 5-12  120.06000000   5- 4-11  120.35000000

  5- 6-13  121.45000000   6- 1- 7  117.09692443   6- 5-12  119.31000000

 NUCLEAR CHARGE:                   50
 NUMBER OF PRIMITIVE AOS:         306
 NUMBER OF SYMMETRY AOS:          299
 NUMBER OF CONTRACTIONS:          196   ( 196A   )
 NUMBER OF CORE ORBITALS:           7   (   7A   )
 NUMBER OF VALENCE ORBITALS:       34   (  34A   )


 NUCLEAR REPULSION ENERGY  268.66917513


 Eigenvalues of metric

         1 0.128E-05 0.115E-04 0.208E-04 0.252E-04 0.389E-04 0.411E-04 0.164E-03 0.540E-03
 

 Contracted 2-electron integrals neglected if value below      1.0D-12
 AO integral compression algorithm  1   Integral accuracy      1.0D-12

     748.683 MB (compressed) written to integral file ( 45.6%)

     Node minimum: 748.683 MB, node maximum: 748.683 MB
 

 NUMBER OF SORTED TWO-ELECTRON INTEGRALS:  186370471.     BUFFER LENGTH:  32768
 NUMBER OF SEGMENTS:  12  SEGMENT LENGTH:   15999503      RECORD LENGTH: 524288

 Memory used in sort:      16.56 MW

 SORT1 READ   205296573. AND WROTE   160622265. INTEGRALS IN    465 RECORDS. CPU TIME:     3.96 SEC, REAL TIME:     9.84 SEC
 SORT2 READ   160622265. AND WROTE   186370471. INTEGRALS IN   2856 RECORDS. CPU TIME:     4.64 SEC, REAL TIME:    16.17 SEC

 Node minimum:   186370471.  Node maximum:   186370471. integrals

 OPERATOR DM      FOR CENTER  0  COORDINATES:    0.000000    0.000000    0.000000


 **********************************************************************************************************************************
 DATASETS  * FILE   NREC   LENGTH (MB)   RECORD NAMES
              1      19      672.15       500      610      700      900      950      970     1000      129      960     1100   
                                          VAR    BASINP    GEOM    SYMINP    ZMAT    AOBASIS   BASIS     P2S    ABASIS      S 
                                         1400     1410     1200     1210     1080     1600     1650     1300     1700   
                                           T        V       H0       H01     AOSYM     SMH    MOLCAS    ERIS     OPER   
 
              2       4        1.32       500      610      700     1000   
                                          VAR    BASINP    GEOM     BASIS   
 
 PROGRAMS   *        TOTAL       INT      FILE
 CPU TIMES  *        24.63     24.57      0.00
 REAL TIME  *        44.86 SEC
 DISK USED  *         3.32 GB      
 GA USED    *         0.00 MB       (max)       0.00 MB       (current)
 **********************************************************************************************************************************

1PROGRAM * RHF-SCF (CLOSED SHELL)       Authors: W. Meyer, H.-J. Werner


 NUMBER OF ELECTRONS:      25+   25-
 CONVERGENCE THRESHOLDS:    1.00E-05 (Density)    1.00E-07 (Energy)
 MAX. NUMBER OF ITERATIONS:       60
 INTERPOLATION TYPE:            DIIS
 INTERPOLATION STEPS:              2 (START)      1 (STEP)
 LEVEL SHIFTS:                  0.00 (CLOSED)  0.00 (OPEN) 



 Orbital guess generated from atomic densities.  Occupancy:   25

 Molecular orbital dump at record        2100.2

 ITERATION    DDIFF          GRAD             ENERGY        2-EL.EN.            DIPOLE MOMENTS         DIIS
    1      0.000D+00      0.000D+00      -305.46643286    750.010867   0.030663  -1.446243  -0.362418    0
    2      0.000D+00      0.379D-02      -305.54588795    743.204469  -0.018949  -0.663083   0.133271    1
    3      0.198D-01      0.196D-02      -305.56016657    745.917270   0.005141  -0.853594   0.108286    2
    4      0.395D-02      0.507D-03      -305.56205329    745.622866  -0.002337  -0.781127   0.184814    3
    5      0.466D-02      0.179D-03      -305.56224719    745.518510  -0.000295  -0.770528   0.203728    4
    6      0.985D-03      0.475D-04      -305.56227550    745.535842  -0.000742  -0.763132   0.209037    5
    7      0.456D-03      0.178D-04      -305.56228067    745.535338  -0.000576  -0.761402   0.215713    6
    8      0.120D-03      0.780D-05      -305.56228170    745.530173  -0.000615  -0.759790   0.215228    7
    9      0.653D-04      0.371D-05      -305.56228196    745.532689  -0.000596  -0.759478   0.216617    8
   10      0.194D-04      0.147D-05      -305.56228202    745.532334  -0.000591  -0.759486   0.216601    8
   11      0.138D-04      0.581D-06      -305.56228203    745.532422  -0.000597  -0.759477   0.216648    8
   12      0.604D-05      0.276D-06      -305.56228203    745.532525  -0.000593  -0.759492   0.216614    0
 
 Final occupancy:  25
 
 !RHF STATE 1.1 Energy               -305.562282027753
 Nuclear energy                       268.66917513
 One-electron energy                 -946.99771979
 Two-electron energy                  372.76626264
 Virial quotient                       -1.00244744
 !RHF STATE 1.1 Dipole moment          -0.00059254    -0.75949249     0.21661429
 Dipole moment /Debye                  -0.00150600    -1.93031093     0.55054255

 Orbital energies:

         1.1          2.1          3.1          4.1          5.1          6.1          7.1          8.1          9.1         10.1
    -20.601652   -11.297412   -11.245228   -11.244244   -11.238767   -11.238166   -11.235508    -1.355586    -1.143827    -1.019608

        11.1         12.1         13.1         14.1         15.1         16.1         17.1         18.1         19.1         20.1
     -0.997362    -0.836602    -0.812845    -0.705392    -0.659542    -0.648268    -0.611552    -0.591026    -0.587561    -0.524318

        21.1         22.1         23.1         24.1         25.1         26.1         27.1
     -0.517982    -0.486578    -0.468544    -0.340902    -0.324125     0.029731     0.044078


 **********************************************************************************************************************************
 DATASETS  * FILE   NREC   LENGTH (MB)   RECORD NAMES
              1      20      672.15       500      610      700      900      950      970     1000      129      960     1100   
                                          VAR    BASINP    GEOM    SYMINP    ZMAT    AOBASIS   BASIS     P2S    ABASIS      S 
                                         1400     1410     1200     1210     1080     1600     1650     1300     1700      960(1)
                                           T        V       H0       H01     AOSYM     SMH    MOLCAS    ERIS     OPER    ABASIS    
 
              2       5        2.13       500      610      700     1000     2100   
                                          VAR    BASINP    GEOM     BASIS     RHF  
 
 PROGRAMS   *        TOTAL        HF       INT      FILE
 CPU TIMES  *        54.63     30.00     24.57      0.00
 REAL TIME  *        79.25 SEC
 DISK USED  *         3.33 GB      
 GA USED    *         0.00 MB       (max)       0.00 MB       (current)
 **********************************************************************************************************************************


1PROGRAM * CCSD (Closed-shell coupled cluster)     Authors: C. Hampel, H.-J. Werner, 1991, M. Deegan, P.J. Knowles, 1992


 States requested for EOM calculation: 2.1 3.1 4.1 5.1 6.1 7.1

 Convergence thresholds:  THRVAR = 1.00D-10  THRDEN = 1.00D-06

 Number of core orbitals:           7 (   7 )
 Number of closed-shell orbitals:  18 (  18 )
 Number of external orbitals:     171 ( 171 )
 
 Molecular orbitals read from record     2100.2  Type=RHF/CANONICAL (state 1.1)

 Number of N-1 electron functions:              18
 Number of N-2 electron functions:             171
 Number of singly external CSFs:              3078
 Number of doubly external CSFs:           4738581
 Total number of CSFs:                     4741660

 Length of J-op  integral file:               0.00 MB
 Length of K-op  integral file:               2.68 MB
 Length of 3-ext integral record:             0.00 MB

 Integral transformation finished. Total CPU:  41.39 sec, npass=  1  Memory used:  83.46 MW

 Reference energy:                   -305.56228203
 MP2 singlet pair energy:              -0.62815470
 MP2 triplet pair energy:              -0.41286837
 MP2 correlation energy:               -1.04102306
 MP2 total energy:                   -306.60330509

 SCS-MP2 correlation energy:           -1.01068151   (PS=  1.200000  PT=  0.333333)
 SCS-MP2 total energy:               -306.57296354

 ITER.      SQ.NORM     CORR.ENERGY   TOTAL ENERGY   ENERGY CHANGE        DEN1      VAR(S)    VAR(P)  DIIS     TIME
   1      1.36632618    -1.03478359  -306.59706562     0.00623947    -0.03360862  0.57D-02  0.85D-02  1  1   150.41
   2      1.39615084    -1.06309072  -306.62537275    -0.02830713    -0.00294435  0.13D-03  0.12D-02  2  2   261.48
   3      1.41004843    -1.07004737  -306.63232939    -0.00695664    -0.00028793  0.61D-04  0.12D-03  3  3   370.61
   4      1.41553430    -1.07176645  -306.63404848    -0.00171908    -0.00004240  0.91D-05  0.18D-04  4  4   479.72
   5      1.41749574    -1.07216799  -306.63445002    -0.00040154    -0.00000579  0.18D-05  0.24D-05  5  5   609.39
   6      1.41809355    -1.07225491  -306.63453694    -0.00008692    -0.00000092  0.56D-06  0.26D-06  6  6   731.10
   7      1.41822977    -1.07226451  -306.63454654    -0.00000961    -0.00000022  0.16D-06  0.54D-07  6  2   892.45
   8      1.41828221    -1.07226969  -306.63455172    -0.00000518    -0.00000006  0.46D-07  0.14D-07  6  1  1048.66
   9      1.41830610    -1.07227065  -306.63455267    -0.00000096    -0.00000001  0.75D-08  0.30D-08  6  3  1171.50
  10      1.41831317    -1.07227050  -306.63455253     0.00000015     0.00000000  0.91D-09  0.64D-09  6  4  1285.50
  11      1.41831282    -1.07226931  -306.63455134     0.00000118     0.00000000  0.12D-09  0.11D-09  6  5  1403.45
  12      1.41831158    -1.07226866  -306.63455068     0.00000066     0.00000000  0.29D-10  0.18D-10  6  6  1515.61

 Norm of t1 vector:      0.10423989      S-energy:    -0.00000006      T1 diagnostic:  0.01228479
                                                                       D1 diagnostic:  0.03364329
 Norm of t2 vector:      0.63831468      P-energy:    -1.07226859


 RESULTS
 =======
 
  Reference energy                   -305.562282027755
  CCSD singlet pair energy             -0.709227038217
  CCSD triplet pair energy             -0.363041555809
  CCSD correlation energy              -1.072268657188
 
 !CCSD Energy                        -306.634550684943

 Program statistics:

 Available memory in ccsd:               127998928
 Min. memory needed in ccsd:              11709288
 Max. memory used in ccsd:                16017561
 Max. memory used in cckext:              13676230 (12 integral passes)

 Reset NCCKEXT to 0 because of MPP

 Starting EOM-CCSD program.     Author: T. Korona (1999)

 

 EOM-CCSD FOR    6 EXCITED STATES OF SYMMETRY 1    STATE(S)  1  2  3  4  5  6
 

 Number of N-1 electron functions:              18
 Number of N-2 electron functions:             171
 Number of singly external CSFs:              3078
 Number of doubly external CSFs:           4738581
 Total number of CSFs:                     4741660

 Iter. Vector     |HC-EC|         E_new-E_old   Excitation energy    Total energy
 
   0     1      0.415475E+00      0.311029E+00     0.3110286460   -306.3235220390                      
   0     2      0.423561E+00      0.332389E+00     0.3323891862   -306.3021614988                      
   0     3      0.343102E+00      0.338688E+00     0.3386883667   -306.2958623182                      
   0     4      0.351090E+00      0.348824E+00     0.3488235006   -306.2857271843                      
   0     5      0.332141E+00      0.351017E+00     0.3510169931   -306.2835336918                      
   0     6      0.327696E+00      0.358868E+00     0.3588681863   -306.2756824986                      
 
   1     1      0.147164E+00     -0.104195E+00     0.2068339009   -306.4277167840                      
   1     2      0.139970E+00     -0.120013E+00     0.2123765100   -306.4221741750                      
   1     3      0.134831E+00     -0.869164E-01     0.2517720079   -306.3827786771                      
   1     4      0.134808E+00     -0.889651E-01     0.2598584279   -306.3746922570                      
   1     5      0.118197E+00     -0.865604E-01     0.2644565845   -306.3700941004                      
   1     6      0.122493E+00     -0.845427E-01     0.2743254558   -306.3602252291                      
 
   2     1      0.720057E-01     -0.161281E-01     0.1907058217   -306.4438448633                      
   2     2      0.870824E-01     -0.167827E-01     0.1955938120   -306.4389568730                      
   2     3      0.492248E-01     -0.137952E-01     0.2379767956   -306.3965738893                      
   2     4      0.617572E-01     -0.148747E-01     0.2449837051   -306.3895669798                      
   2     5      0.441720E-01     -0.101002E-01     0.2543563626   -306.3801943224                      
   2     6      0.468442E-01     -0.115888E-01     0.2627367017   -306.3718139832                      
 
   3     1      0.456722E-01     -0.455274E-02     0.1861530769   -306.4483976081                      
   3     2      0.554997E-01     -0.830619E-02     0.1872876264   -306.4472630585                      
   3     3      0.292898E-01     -0.250317E-02     0.2354736306   -306.3990770543                      
   3     4      0.482540E-01     -0.454614E-02     0.2404375646   -306.3941131203                      
   3     5      0.254754E-01     -0.223359E-02     0.2521227703   -306.3824279147                      
   3     6      0.269081E-01     -0.236504E-02     0.2603716600   -306.3741790249                      
 
   4     1      0.332690E-01     -0.200216E-02     0.1841509194   -306.4503997655                      
   4     2      0.290025E-01     -0.218799E-02     0.1850996376   -306.4494510473                      
   4     3      0.175832E-01     -0.667044E-03     0.2348065870   -306.3997440980                      
   4     4      0.603265E-01     -0.425880E-02     0.2361787680   -306.3983719170                      
   4     5      0.171938E-01     -0.562244E-03     0.2515605262   -306.3829901588                      
   4     6      0.278874E-01     -0.890836E-03     0.2594808238   -306.3750698612                      
 
   5     1      0.276379E-01     -0.167766E-02     0.1824732572   -306.4520774277                      
   5     2      0.159390E-01     -0.642798E-03     0.1844568396   -306.4500938453                      
   5     3      0.730091E-01     -0.632161E-02     0.2284849732   -306.4060657118                      
   5     4      0.995326E-02     -0.159744E-02     0.2345813252   -306.3999693597                      
   5     5      0.266226E-01     -0.654279E-03     0.2509062467   -306.3836444382                      
   5     6      0.702793E-01     -0.237104E-02     0.2571097847   -306.3774409003                      
 
   6     1      0.136110E-01     -0.697674E-03     0.1817755833   -306.4527751017                      
   6     2      0.835040E-02     -0.157754E-03     0.1842990855   -306.4502515995                      
   6     3      0.449792E-01     -0.587678E-02     0.2226081897   -306.4119424952                      
   6     4      0.812466E-02     -0.948461E-04     0.2344864791   -306.4000642058                      
   6     5      0.345388E-01     -0.183915E-02     0.2490670931   -306.3854835919                      
   6     6      0.284213E-01     -0.446977E-02     0.2526400166   -306.3819106684                      
 
   7     1      0.611223E-02     -0.210676E-03     0.1815649076   -306.4529857773                      
   7     2      0.467463E-02     -0.469655E-04     0.1842521199   -306.4502985650                      
   7     3      0.307695E-01     -0.211283E-02     0.2204953548   -306.4140553302                      
   7     4      0.696861E-02     -0.834730E-04     0.2344030062   -306.4001476787                      
   7     5      0.265336E-01     -0.130407E-02     0.2477630222   -306.3867876628                      
   7     6      0.688379E-01     -0.141518E-02     0.2512248392   -306.3833258458                      
 
   8     1      0.299397E-02     -0.250904E-04     0.1815398172   -306.4530108677                      
   8     2      0.533763E-02     -0.283910E-04     0.1842237290   -306.4503269560                      
   8     3      0.101234E+00     -0.372888E-02     0.2167664765   -306.4177842084                      
   8     4      0.170697E+00     -0.292020E-02     0.2314828035   -306.4030678814                      
   8     5      0.233318E-01     -0.133326E-01     0.2344304271   -306.4001202578                      
   8     6      0.475560E-01     -0.509422E-02     0.2461306193   -306.3884200656                      
 
   9     1      0.444822E-02     -0.208750E-04     0.1815189422   -306.4530317428                      
   9     2      0.153474E-01     -0.116873E-03     0.1841068564   -306.4504438285                      
   9     3      0.114154E+00     -0.252329E-01     0.1915336038   -306.4430170811                      
   9     4      0.282391E-01     -0.974605E-02     0.2217367582   -306.4128139268                      
   9     5      0.294067E-02     -0.800356E-04     0.2343503915   -306.4002002934                      
   9     6      0.263444E-01     -0.222714E-02     0.2439034840   -306.3906472009                      
 
  10     1      0.525383E-01     -0.631991E-03     0.1808869515   -306.4536637335                      
  10     2      0.265477E-01     -0.239529E-02     0.1817115674   -306.4528391175                      
  10     3      0.184746E-01     -0.698583E-02     0.1845477759   -306.4500029090                      
  10     4      0.128438E-01     -0.473542E-03     0.2212632165   -306.4132874684                      
  10     5      0.146848E-02     -0.104958E-04     0.2343398957   -306.4002107892                      
  10     6      0.160998E-01     -0.544871E-03     0.2433586126   -306.3911920723                      
 
  11     1      0.304519E-01     -0.275887E-02     0.1781280802   -306.4564226047                      
  11     2      0.302915E-02     -0.147500E-03     0.1815640673   -306.4529866177                      
  11     3      0.502833E-02     -0.162419E-03     0.1843853567   -306.4501653282                      
  11     4      0.686212E-02     -0.137138E-03     0.2211260782   -306.4134246068                      
  11     5      0.896959E-03     -0.212831E-05     0.2343377674   -306.4002129176                      
  11     6      0.102109E-01     -0.258593E-03     0.2431000194   -306.3914506656                      
 
  12     1      0.139629E-01     -0.525029E-03     0.1776030512   -306.4569476338                      
  12     2      0.121697E-02      0.993537E-06     0.1815650608   -306.4529856241                      
  12     3      0.215847E-02     -0.174951E-04     0.1843678617   -306.4501828233                      
  12     4      0.345515E-02     -0.371940E-04     0.2210888842   -306.4134618007                      
  12     5      0.658437E-03      0.475800E-06     0.2343382432   -306.4002124418                      
  12     6      0.669301E-02     -0.888999E-04     0.2430111195   -306.3915395655                      
 
  13     1      0.615454E-02     -0.895487E-04     0.1775135024   -306.4570371825                      
  13     2      0.534810E-03      0.685538E-06     0.1815657464   -306.4529849386                      
  13     3      0.956372E-03     -0.264887E-05     0.1843652128   -306.4501854722                      
  13     4      0.169737E-02     -0.996528E-05     0.2210789189   -306.4134717660                      
  13     5      0.402181E-03      0.544317E-06     0.2343387875   -306.4002118974                      
  13     6      0.429456E-02     -0.495838E-04     0.2429615357   -306.3915891493                      
 
  14     1      0.292363E-02     -0.164378E-04     0.1774970646   -306.4570536203                      
  14     2      0.257552E-03      0.371188E-06     0.1815661175   -306.4529845674                      
  14     3      0.462181E-03     -0.248111E-06     0.1843649647   -306.4501857203                      
  14     4      0.929437E-03      0.212065E-06     0.2210791310   -306.4134715539                      
  14     5      0.245654E-03     -0.566608E-06     0.2343382209   -306.4002124640                      
  14     6      0.290776E-02     -0.161237E-04     0.2429454120   -306.3916052730                      
 
  15     1      0.145987E-02     -0.739229E-05     0.1774896723   -306.4570610126                      
  15     2      0.129914E-03      0.173561E-06     0.1815662911   -306.4529843938                      
  15     3      0.236099E-03      0.906762E-08     0.1843649737   -306.4501857112                      
  15     4      0.534836E-03     -0.108664E-05     0.2210780444   -306.4134726406                      
  15     5      0.149870E-03      0.301684E-06     0.2343385226   -306.4002121624                      
  15     6      0.180904E-02     -0.316495E-05     0.2429422470   -306.3916084379                      
 
  16     1      0.716534E-03     -0.426994E-05     0.1774854024   -306.4570652826                      
  16     2      0.648844E-04      0.415357E-07     0.1815663326   -306.4529843523  Converged           
  16     3      0.117683E-03     -0.492607E-07     0.1843649245   -306.4501857605                      
  16     4      0.297208E-03     -0.508161E-06     0.2210775362   -306.4134731487                      
  16     5      0.921151E-04     -0.188972E-06     0.2343383336   -306.4002123513  Converged           
  16     6      0.111354E-02     -0.458622E-05     0.2429376608   -306.3916130241                      
 
  17     1      0.350067E-03     -0.180776E-05     0.1774835946   -306.4570670903                      
  17     3      0.581561E-04     -0.311921E-07     0.1843648933   -306.4501857916  Converged           
  17     4      0.156449E-03     -0.580812E-07     0.2210774781   -306.4134732068                      
  17     6      0.708015E-03     -0.195556E-05     0.2429357053   -306.3916149797                      
 
  18     1      0.181523E-03      0.166556E-06     0.1774837612   -306.4570669238                      
  18     4      0.875793E-04      0.739296E-07     0.2210775520   -306.4134731329  Converged           
  18     6      0.479130E-03     -0.735394E-06     0.2429349699   -306.3916157151                      
 
  19     1      0.933848E-04     -0.237664E-06     0.1774835235   -306.4570671614  Converged           
  19     6      0.304635E-03     -0.656622E-06     0.2429343132   -306.3916163717                      
 
  20     6      0.182388E-03     -0.264201E-06     0.2429340490   -306.3916166359                      
 
  21     6      0.104123E-03      0.379860E-06     0.2429344289   -306.3916162560                      
 
  22     6      0.609613E-04     -0.350892E-07     0.2429343938   -306.3916162911  Converged           

  Results for state  2.1: Excitation energy         0.17748352 au        4.830 eV       38953.13 cm-1                                        

  Coefficient     Excitation
    -0.63514     23.1 -> 26.1
    -0.34387     20.1 -> 26.1
     0.26642     23.1 -> 33.1
     0.17811     23.1 -> 39.1
    -0.17275     23.1 -> 29.1
    -0.16128     23.1 -> 36.1
     0.14123     23.1 -> 27.1
     0.13386     20.1 -> 33.1
    -0.12564     23.1 -> 35.1
     0.12417     23.1 -> 34.1
    -0.11916     16.1 -> 26.1
     0.11214     20.1 -> 39.1
    -0.10190     20.1 -> 36.1
     0.10116     23.1 -> 31.1

  Contribution of reference determinant     -0.00173

  Results for state  3.1: Excitation energy         0.18156623 au        4.941 eV       39849.18 cm-1                                        

  Coefficient     Excitation
    -0.58557     25.1 -> 32.1
    -0.44873     24.1 -> 33.1
     0.39936     24.1 -> 26.1
     0.21557     25.1 -> 49.1
     0.13152     24.1 -> 29.1
     0.12352     24.1 -> 34.1
    -0.12100     25.1 -> 26.1
     0.12093     24.1 -> 47.1
    -0.12071     24.1 -> 31.1

  Contribution of reference determinant     -0.00520

  Results for state  4.1: Excitation energy         0.18436489 au        5.017 eV       40463.42 cm-1                                        

  Coefficient     Excitation
     0.80380     25.1 -> 26.1
    -0.26113     25.1 -> 33.1
     0.15631     25.1 -> 29.1
     0.15457     25.1 -> 36.1
     0.14644     25.1 -> 35.1
     0.14223     22.1 -> 26.1
    -0.12719     25.1 -> 27.1

  Contribution of reference determinant      0.03088

  Results for state  5.1: Excitation energy         0.22107754 au        6.016 eV       48520.91 cm-1                                        

  Coefficient     Excitation
    -0.75591     24.1 -> 26.1
    -0.40818     25.1 -> 32.1
    -0.22926     24.1 -> 35.1
    -0.21422     24.1 -> 36.1
     0.12610     24.1 -> 34.1
     0.11681     25.1 -> 49.1

  Contribution of reference determinant     -0.00089

  Results for state  6.1: Excitation energy         0.23433827 au        6.377 eV       51431.31 cm-1                                        

  Coefficient     Excitation
     0.82617     25.1 -> 27.1
     0.20749     25.1 -> 26.1
     0.18413     25.1 -> 39.1
    -0.16481     25.1 -> 29.1
     0.14881     25.1 -> 33.1
    -0.14559     25.1 -> 43.1
    -0.13426     24.1 -> 32.1
     0.13153     25.1 -> 44.1
     0.12700     25.1 -> 36.1
     0.11047     25.1 -> 35.1

  Contribution of reference determinant     -0.01053

  Results for state  7.1: Excitation energy         0.24293439 au        6.611 eV       53317.94 cm-1                                        

  Coefficient     Excitation
    -0.59789     24.1 -> 32.1
     0.42413     25.1 -> 33.1
    -0.32504     25.1 -> 34.1
    -0.26108     25.1 -> 27.1
     0.20312     25.1 -> 36.1
     0.16655     25.1 -> 35.1
     0.16171     24.1 -> 49.1
     0.14438     25.1 -> 31.1
     0.13652     25.1 -> 43.1
     0.11455     25.1 -> 54.1
    -0.11204     25.1 -> 29.1
    -0.10945     25.1 -> 47.1

  Contribution of reference determinant     -0.01567


  Final Results:
  ==============

  State    Exc. Energy    Total Energy     Weight(S)     Weight(D)      Delta E    Conv   Max. Coef.     Excitation
   1.1     0.00000000    -306.63455068     0.766E-02     0.287E+00     0.658E-06     Y
   2.1     0.17748352    -306.45706717     0.909E+00     0.905E-01    -0.238E-06     Y    -0.63514     23.1 -> 26.1
   3.1     0.18156623    -306.45298445     0.896E+00     0.104E+00     0.415E-07     Y    -0.58557     25.1 -> 32.1
   4.1     0.18436489    -306.45018580     0.911E+00     0.881E-01    -0.312E-07     Y     0.80380     25.1 -> 26.1
   5.1     0.22107754    -306.41347315     0.909E+00     0.908E-01     0.739E-07     Y    -0.75591     24.1 -> 26.1
   6.1     0.23433827    -306.40021241     0.934E+00     0.659E-01    -0.189E-06     Y     0.82617     25.1 -> 27.1
   7.1     0.24293439    -306.39161629     0.937E+00     0.623E-01    -0.351E-07     Y    -0.59789     24.1 -> 32.1


 **********************************************************************************************************************************
 DATASETS  * FILE   NREC   LENGTH (MB)   RECORD NAMES
              1      21     1114.12       500      610      700      900      950      970     1000      129      960     1100   
                                          VAR    BASINP    GEOM    SYMINP    ZMAT    AOBASIS   BASIS     P2S    ABASIS      S 
                                         1400     1410     1200     1210     1080     1600     1650     1300     1700      960(1)
                                           T        V       H0       H01     AOSYM     SMH    MOLCAS    ERIS     OPER    ABASIS    
                                         1380   
                                         JKOP   
 
              2       5        2.13       500      610      700     1000     2100   
                                          VAR    BASINP    GEOM     BASIS     RHF  
 
 PROGRAMS   *        TOTAL      CCSD        HF       INT      FILE
 CPU TIMES  *     17222.98  17168.35     30.00     24.57      0.00
 REAL TIME  *     22153.26 SEC
 DISK USED  *        15.10 GB      
 GA USED    *         0.00 MB       (max)       0.00 MB       (current)
 **********************************************************************************************************************************
 SETTING E1(1)          =      -306.63455068  AU                              
 SETTING E2(1)          =      -306.45706717  AU                              
 SETTING E3(1)          =      -306.45298445  AU                              
 SETTING E4(1)          =      -306.45018580  AU                              
 SETTING E5(1)          =      -306.41347315  AU                              
 SETTING E6(1)          =      -306.40021241  AU                              
 SETTING E7(1)          =      -306.39161629  AU                              

 DO N                   =         2.00000000   
 SETTING B7             =         1.32000000                                  


 Recomputing integrals since geometry changed

1PROGRAM * SEWARD (Integral evaluation for generally contracted gaussian basis sets)     Author: Roland Lindh, 1990

 Geometry written to block  1 of record 700

 Orientation using atomic masses  
 Molecule type: Asymmetric top
 Rotational constants:       2.5779209      1.7819002      5.5790767 GHz

 Point group  C1  



 ATOMIC COORDINATES

 NR  ATOM    CHARGE       X              Y              Z

   1  C       6.00    0.069196690    0.056103868   -1.736654446
   2  C       6.00    2.325306556    0.031589678   -0.355113842
   3  C       6.00    2.245646318   -0.015225391    2.288888750
   4  C       6.00   -0.071973057   -0.037622079    3.556738210
   5  C       6.00   -2.318764853   -0.012777456    2.156524287
   6  C       6.00   -2.258620329    0.033946797   -0.482324285
   7  O       8.00    0.013829012    0.101962561   -4.326471294
   8  H       1.00   -0.003042812   -2.250787214   -5.155028615
   9  H       1.00    4.133756679    0.048935456   -1.337054815
  10  H       1.00    4.005171646   -0.034031247    3.348688960
  11  H       1.00   -0.128754161   -0.073939875    5.607873634
  12  H       1.00   -4.132379478   -0.029811640    3.120874510
  13  H       1.00   -3.984530744    0.053644312   -1.592524649

 Bond lengths in Bohr (Angstrom)

 1-2  2.645616584  1-6  2.644346264  1-7  2.590814526  2-3  2.645616584  2-9  2.057911757
     (1.400000000)     (1.399327776)     (1.371000000)     (1.400000000)     (1.089000000)

  3- 4  2.641837132   3-10  2.054132305   4- 5  2.647506310   4-11  2.052242579   5- 6  2.639947406
       (1.398000000)       (1.087000000)       (1.401000000)       (1.086000000)       (1.397000000)

  5-12  2.054132305   6-13  2.052242579   7- 8  2.494438493
       (1.087000000)       (1.086000000)       (1.320000000)

 Bond angles

  1- 2- 3  119.76000000   1- 2- 9  120.01000000   1- 6- 5  119.62692443   1- 6-13  118.92307557

  1-7-8  108.39000000   2-1-6  120.19307557   2-1-7  122.71000000   2-3-4  120.41000000

  2- 3-10  119.34000000   3- 2- 9  120.23000000   3- 4- 5  119.38000000   3- 4-11  120.27000000

  4- 3-10  120.25000000   4- 5- 6  120.63000000   4- 5-12  120.06000000   5- 4-11  120.35000000

  5- 6-13  121.45000000   6- 1- 7  117.09692443   6- 5-12  119.31000000

 NUCLEAR CHARGE:                   50
 NUMBER OF PRIMITIVE AOS:         306
 NUMBER OF SYMMETRY AOS:          299
 NUMBER OF CONTRACTIONS:          196   ( 196A   )
 NUMBER OF CORE ORBITALS:           7   (   7A   )
 NUMBER OF VALENCE ORBITALS:       34   (  34A   )


 NUCLEAR REPULSION ENERGY  268.63117636


 Eigenvalues of metric

         1 0.128E-05 0.115E-04 0.208E-04 0.252E-04 0.389E-04 0.411E-04 0.164E-03 0.540E-03
 

 Contracted 2-electron integrals neglected if value below      1.0D-12
 AO integral compression algorithm  1   Integral accuracy      1.0D-12

     748.683 MB (compressed) written to integral file ( 45.6%)

     Node minimum: 748.683 MB, node maximum: 748.683 MB
 

 NUMBER OF SORTED TWO-ELECTRON INTEGRALS:  186370471.     BUFFER LENGTH:  32768
 NUMBER OF SEGMENTS:  12  SEGMENT LENGTH:   15999503      RECORD LENGTH: 524288

 Memory used in sort:      16.56 MW

 SORT1 READ   205295823. AND WROTE   160613227. INTEGRALS IN    465 RECORDS. CPU TIME:     4.01 SEC, REAL TIME:     8.52 SEC
 SORT2 READ   160613227. AND WROTE   186370471. INTEGRALS IN   2856 RECORDS. CPU TIME:     4.67 SEC, REAL TIME:    31.29 SEC

 Node minimum:   186370471.  Node maximum:   186370471. integrals

 OPERATOR DM      FOR CENTER  0  COORDINATES:    0.000000    0.000000    0.000000


 **********************************************************************************************************************************
 DATASETS  * FILE   NREC   LENGTH (MB)   RECORD NAMES
              1      19      672.12       500      610      700      900      950      970     1000      129      960     1100   
                                          VAR    BASINP    GEOM    SYMINP    ZMAT    AOBASIS   BASIS     P2S    ABASIS      S 
                                         1400     1410     1200     1210     1080     1600     1650     1300     1700   
                                           T        V       H0       H01     AOSYM     SMH    MOLCAS    ERIS     OPER   
 
              2       5        2.13       500      610      700     1000     2100   
                                          VAR    BASINP    GEOM     BASIS     RHF  
 
 PROGRAMS   *        TOTAL       INT      CCSD        HF       INT      FILE
 CPU TIMES  *     17247.51     24.52  17168.35     30.00     24.57      0.00
 REAL TIME  *     22216.77 SEC
 DISK USED  *        15.10 GB      
 GA USED    *         0.00 MB       (max)       0.00 MB       (current)
 **********************************************************************************************************************************

1PROGRAM * RHF-SCF (CLOSED SHELL)       Authors: W. Meyer, H.-J. Werner


 NUMBER OF ELECTRONS:      25+   25-    SPACE SYMMETRY=1    SPIN SYMMETRY=Singlet 
 CONVERGENCE THRESHOLDS:    1.00E-05 (Density)    1.00E-07 (Energy)
 MAX. NUMBER OF ITERATIONS:       60
 INTERPOLATION TYPE:            DIIS
 INTERPOLATION STEPS:              2 (START)      1 (STEP)
 LEVEL SHIFTS:                  0.00 (CLOSED)  0.00 (OPEN) 



 Molecular orbitals read from record     2100.2  Type=RHF/CANONICAL (state 1.1)

 Molecular orbital dump at record        2100.2

 ITERATION    DDIFF          GRAD             ENERGY        2-EL.EN.            DIPOLE MOMENTS         DIIS
    1      0.000D+00      0.000D+00      -305.55965768    745.488110  -0.000626  -0.765838   0.215632    0
    2      0.000D+00      0.552D-04      -305.55967218    745.461085  -0.000676  -0.763840   0.214000    1
    3      0.304D-03      0.164D-04      -305.55967373    745.471797  -0.000615  -0.763355   0.217099    2
    4      0.759D-04      0.880D-05      -305.55967424    745.464146  -0.000649  -0.761947   0.217010    3
    5      0.434D-04      0.298D-05      -305.55967437    745.464296  -0.000636  -0.761655   0.217798    4
    6      0.194D-04      0.899D-06      -305.55967438    745.463993  -0.000643  -0.761332   0.217993    5
    7      0.156D-04      0.291D-06      -305.55967439    745.464016  -0.000637  -0.761338   0.218102    6
    8      0.256D-05      0.143D-06      -305.55967439    745.463964  -0.000640  -0.761333   0.218056    0
 
 Final occupancy:  25
 
 !RHF STATE 1.1 Energy               -305.559674385852
 Nuclear energy                       268.63117636
 One-electron energy                 -946.92283299
 Two-electron energy                  372.73198225
 Virial quotient                       -1.00245741
 !RHF STATE 1.1 Dipole moment          -0.00064036    -0.76133340     0.21805618
 Dipole moment /Debye                  -0.00162752    -1.93498975     0.55420724

 Orbital energies:

         1.1          2.1          3.1          4.1          5.1          6.1          7.1          8.1          9.1         10.1
    -20.602101   -11.297341   -11.245224   -11.244239   -11.238792   -11.238220   -11.235537    -1.354954    -1.143791    -1.019614

        11.1         12.1         13.1         14.1         15.1         16.1         17.1         18.1         19.1         20.1
     -0.997254    -0.836595    -0.812689    -0.705136    -0.659055    -0.648254    -0.610777    -0.591032    -0.586959    -0.524294

        21.1         22.1         23.1         24.1         25.1         26.1         27.1
     -0.517972    -0.486256    -0.468491    -0.340907    -0.323948     0.028981     0.044022


 **********************************************************************************************************************************
 DATASETS  * FILE   NREC   LENGTH (MB)   RECORD NAMES
              1      19      672.12       500      610      700      900      950      970     1000      129      960     1100   
                                          VAR    BASINP    GEOM    SYMINP    ZMAT    AOBASIS   BASIS     P2S    ABASIS      S 
                                         1400     1410     1200     1210     1080     1600     1650     1300     1700   
                                           T        V       H0       H01     AOSYM     SMH    MOLCAS    ERIS     OPER   
 
              2       5        2.13       500      610      700     1000     2100   
                                          VAR    BASINP    GEOM     BASIS     RHF  
 
 PROGRAMS   *        TOTAL        HF       INT      CCSD        HF       INT      FILE
 CPU TIMES  *     17265.77     18.27     24.52  17168.35     30.00     24.57      0.00
 REAL TIME  *     22237.85 SEC
 DISK USED  *        15.10 GB      
 GA USED    *         0.00 MB       (max)       0.00 MB       (current)
 **********************************************************************************************************************************


1PROGRAM * CCSD (Closed-shell coupled cluster)     Authors: C. Hampel, H.-J. Werner, 1991, M. Deegan, P.J. Knowles, 1992


 States requested for EOM calculation: 2.1 3.1 4.1 5.1 6.1 7.1

 Convergence thresholds:  THRVAR = 1.00D-10  THRDEN = 1.00D-06

 Number of core orbitals:           7 (   7 )
 Number of closed-shell orbitals:  18 (  18 )
 Number of external orbitals:     171 ( 171 )
 
 Molecular orbitals read from record     2100.2  Type=RHF/CANONICAL (state 1.1)

 Number of N-1 electron functions:              18
 Number of N-2 electron functions:             171
 Number of singly external CSFs:              3078
 Number of doubly external CSFs:           4738581
 Total number of CSFs:                     4741660

 Length of J-op  integral file:               0.00 MB
 Length of K-op  integral file:               2.68 MB
 Length of 3-ext integral record:             0.00 MB

 Integral transformation finished. Total CPU:  39.97 sec, npass=  1  Memory used:  83.46 MW

 Reference energy:                   -305.55967439
 MP2 singlet pair energy:              -0.62846323
 MP2 triplet pair energy:              -0.41297540
 MP2 correlation energy:               -1.04143863
 MP2 total energy:                   -306.60111302

 SCS-MP2 correlation energy:           -1.01111835   (PS=  1.200000  PT=  0.333333)
 SCS-MP2 total energy:               -306.57079274

 ITER.      SQ.NORM     CORR.ENERGY   TOTAL ENERGY   ENERGY CHANGE        DEN1      VAR(S)    VAR(P)  DIIS     TIME
   1      1.36683481    -1.03508585  -306.59476023     0.00635279    -0.03371401  0.57D-02  0.86D-02  1  1   150.40
   2      1.39681852    -1.06346353  -306.62313792    -0.02837769    -0.00296301  0.13D-03  0.12D-02  2  2   262.78
   3      1.41086714    -1.07046737  -306.63014176    -0.00700384    -0.00029113  0.62D-04  0.12D-03  3  3   374.21
   4      1.41643603    -1.07220464  -306.63187903    -0.00173727    -0.00004297  0.93D-05  0.19D-04  4  4   489.29
   5      1.41842818    -1.07261119  -306.63228557    -0.00040655    -0.00000591  0.19D-05  0.24D-05  5  5   605.39
   6      1.41903788    -1.07269941  -306.63237379    -0.00008822    -0.00000096  0.60D-06  0.27D-06  6  6   712.82
   7      1.41917877    -1.07270930  -306.63238368    -0.00000989    -0.00000023  0.17D-06  0.58D-07  6  2   820.68
   8      1.41923424    -1.07271474  -306.63238913    -0.00000544    -0.00000006  0.49D-07  0.15D-07  6  1   928.01
   9      1.41925974    -1.07271577  -306.63239016    -0.00000103    -0.00000001  0.78D-08  0.32D-08  6  3  1034.74
  10      1.41926722    -1.07271561  -306.63239000     0.00000016     0.00000000  0.97D-09  0.68D-09  6  4  1142.41
  11      1.41926687    -1.07271438  -306.63238877     0.00000123     0.00000000  0.13D-09  0.12D-09  6  5  1251.49
  12      1.41926560    -1.07271369  -306.63238808     0.00000069     0.00000000  0.31D-10  0.20D-10  6  6  1359.20

 Norm of t1 vector:      0.10461010      S-energy:    -0.00000010      T1 diagnostic:  0.01232842
                                                                       D1 diagnostic:  0.03394454
 Norm of t2 vector:      0.63900104      P-energy:    -1.07271359


 RESULTS
 =======
 
  Reference energy                   -305.559674385855
  CCSD singlet pair energy             -0.709685918731
  CCSD triplet pair energy             -0.363027674958
  CCSD correlation energy              -1.072713693826
 
 !CCSD Energy                        -306.632388079681

 Program statistics:

 Available memory in ccsd:               127998928
 Min. memory needed in ccsd:              11709288
 Max. memory used in ccsd:                16017561
 Max. memory used in cckext:              13676230 (12 integral passes)

 Reset NCCKEXT to 0 because of MPP

 Starting EOM-CCSD program.     Author: T. Korona (1999)

 

 EOM-CCSD FOR    6 EXCITED STATES OF SYMMETRY 1    STATE(S)  1  2  3  4  5  6
 

 Number of N-1 electron functions:              18
 Number of N-2 electron functions:             171
 Number of singly external CSFs:              3078
 Number of doubly external CSFs:           4738581
 Total number of CSFs:                     4741660

 Iter. Vector     |HC-EC|         E_new-E_old   Excitation energy    Total energy
 
   0     1      0.418297E+00      0.310000E+00     0.3100004496   -306.3223876301                      
   0     2      0.425531E+00      0.331866E+00     0.3318656377   -306.3005224420                      
   0     3      0.342857E+00      0.338550E+00     0.3385504685   -306.2938376112                      
   0     4      0.349792E+00      0.348816E+00     0.3488162763   -306.2835718033                      
   0     5      0.331956E+00      0.350937E+00     0.3509372555   -306.2814508242                      
   0     6      0.328320E+00      0.358832E+00     0.3588317496   -306.2735563301                      
 
   1     1      0.147991E+00     -0.104480E+00     0.2055200792   -306.4268680005                      
   1     2      0.140724E+00     -0.120000E+00     0.2118657065   -306.4205223732                      
   1     3      0.134874E+00     -0.868331E-01     0.2517173785   -306.3806707012                      
   1     4      0.134665E+00     -0.887910E-01     0.2600252849   -306.3723627947                      
   1     5      0.118729E+00     -0.864900E-01     0.2644472064   -306.3679408733                      
   1     6      0.122600E+00     -0.846176E-01     0.2742141985   -306.3581738812                      
 
   2     1      0.723266E-01     -0.163170E-01     0.1892030997   -306.4431849799                      
   2     2      0.866535E-01     -0.168919E-01     0.1949737811   -306.4374142986                      
   2     3      0.493156E-01     -0.138078E-01     0.2379095853   -306.3944784944                      
   2     4      0.617990E-01     -0.149066E-01     0.2451186522   -306.3872694275                      
   2     5      0.442261E-01     -0.101315E-01     0.2543156572   -306.3780724225                      
   2     6      0.470548E-01     -0.116146E-01     0.2625995716   -306.3697885081                      
 
   3     1      0.446762E-01     -0.452649E-02     0.1846766097   -306.4477114700                      
   3     2      0.562576E-01     -0.825844E-02     0.1867153434   -306.4456727363                      
   3     3      0.292500E-01     -0.249874E-02     0.2354108416   -306.3969772381                      
   3     4      0.487275E-01     -0.458470E-02     0.2405339549   -306.3918541248                      
   3     5      0.254869E-01     -0.223564E-02     0.2520800168   -306.3803080628                      
   3     6      0.270877E-01     -0.238889E-02     0.2602106821   -306.3721773976                      
 
   4     1      0.287001E-01     -0.150525E-02     0.1831713573   -306.4492167224                      
   4     2      0.331161E-01     -0.265855E-02     0.1840567895   -306.4483312902                      
   4     3      0.176573E-01     -0.663148E-03     0.2347476935   -306.3976403862                      
   4     4      0.619222E-01     -0.441482E-02     0.2361191397   -306.3962689400                      
   4     5      0.174194E-01     -0.568297E-03     0.2515117203   -306.3808763594                      
   4     6      0.284945E-01     -0.912130E-03     0.2592985525   -306.3730895271                      
 
   5     1      0.264699E-01     -0.119996E-02     0.1819714021   -306.4504166776                      
   5     2      0.178004E-01     -0.109701E-02     0.1829597828   -306.4494282969                      
   5     3      0.754436E-01     -0.686085E-02     0.2278868420   -306.4045012376                      
   5     4      0.985222E-02     -0.159331E-02     0.2345258347   -306.3978622450                      
   5     5      0.274868E-01     -0.686665E-03     0.2508250553   -306.3815630244                      
   5     6      0.699926E-01     -0.244167E-02     0.2568568846   -306.3755311951                      
 
   6     1      0.134938E-01     -0.669816E-03     0.1813015858   -306.4510864939                      
   6     2      0.867706E-02     -0.196028E-03     0.1827637552   -306.4496243245                      
   6     3      0.461789E-01     -0.624664E-02     0.2216402007   -306.4107478790                      
   6     4      0.793268E-02     -0.916858E-04     0.2344341488   -306.3979539308                      
   6     5      0.343110E-01     -0.188487E-02     0.2489401897   -306.3834478900                      
   6     6      0.279797E-01     -0.428294E-02     0.2525739407   -306.3798141390                      
 
   7     1      0.608142E-02     -0.204688E-03     0.1810968979   -306.4512911818                      
   7     2      0.496993E-02     -0.551032E-04     0.1827086520   -306.4496794277                      
   7     3      0.330991E-01     -0.226556E-02     0.2193746398   -306.4130134398                      
   7     4      0.680845E-02     -0.795659E-04     0.2343545830   -306.3980334967                      
   7     5      0.285874E-01     -0.132893E-02     0.2476112620   -306.3847768177                      
   7     6      0.723164E-01     -0.188343E-02     0.2506905057   -306.3816975740                      
 
   8     1      0.293579E-02     -0.261304E-04     0.1810707675   -306.4513173122                      
   8     2      0.626007E-02     -0.356503E-04     0.1826730017   -306.4497150780                      
   8     3      0.129684E+00     -0.579643E-02     0.2135782054   -306.4188098743                      
   8     4      0.150854E+00     -0.691889E-02     0.2274356934   -306.4049523863                      
   8     5      0.106293E-01     -0.132533E-01     0.2343579778   -306.3980301018                      
   8     6      0.453357E-01     -0.487117E-02     0.2458193368   -306.3865687429                      
 
   9     1      0.646509E-02     -0.291671E-04     0.1810416004   -306.4513464793                      
   9     2      0.251062E-01     -0.233626E-03     0.1824393755   -306.4499487042                      
   9     3      0.106814E+00     -0.264187E-01     0.1871594980   -306.4452285817                      
   9     4      0.260838E-01     -0.674439E-02     0.2206913040   -306.4116967757                      
   9     5      0.278218E-02     -0.487935E-04     0.2343091843   -306.3980788954                      
   9     6      0.249400E-01     -0.203133E-02     0.2437880030   -306.3886000767                      
 
  10     1      0.561271E-01     -0.337748E-02     0.1776641214   -306.4547239583                      
  10     2      0.436242E-02     -0.134557E-02     0.1810938026   -306.4512942771                      
  10     3      0.121615E-01     -0.423765E-02     0.1829218522   -306.4494662275                      
  10     4      0.122159E-01     -0.425385E-03     0.2202659190   -306.4121221607                      
  10     5      0.141746E-02     -0.100753E-04     0.2342991090   -306.3980889706                      
  10     6      0.150678E-01     -0.480289E-03     0.2433077139   -306.3890803658                      
 
  11     1      0.285039E-01     -0.252948E-02     0.1751346419   -306.4572534378                      
  11     2      0.132242E-02     -0.139828E-04     0.1810798198   -306.4513082599                      
  11     3      0.414654E-02     -0.877890E-04     0.1828340632   -306.4495540165                      
  11     4      0.664202E-02     -0.127492E-03     0.2201384266   -306.4122496530                      
  11     5      0.872676E-03     -0.223758E-05     0.2342968715   -306.3980912082                      
  11     6      0.977369E-02     -0.229345E-03     0.2430783692   -306.3893097104                      
 
  12     1      0.129345E-01     -0.442042E-03     0.1746925998   -306.4576954799                      
  12     2      0.569787E-03      0.115395E-05     0.1810809737   -306.4513071060                      
  12     3      0.181584E-02     -0.124181E-04     0.1828216451   -306.4495664346                      
  12     4      0.333666E-02     -0.339487E-04     0.2201044780   -306.4122836017                      
  12     5      0.643318E-03      0.370473E-06     0.2342972419   -306.3980908377                      
  12     6      0.647800E-02     -0.852776E-04     0.2429930916   -306.3893949880                      
 
  13     1      0.567870E-02     -0.758063E-04     0.1746167935   -306.4577712862                      
  13     2      0.257511E-03      0.671629E-06     0.1810816454   -306.4513064343                      
  13     3      0.807850E-03     -0.151013E-05     0.1828201350   -306.4495679447                      
  13     4      0.164191E-02     -0.973712E-05     0.2200947408   -306.4122933388                      
  13     5      0.389764E-03      0.438911E-06     0.2342976808   -306.3980903988                      
  13     6      0.416361E-02     -0.441161E-04     0.2429489755   -306.3894391042                      
 
  14     1      0.267041E-02     -0.137085E-04     0.1746030849   -306.4577849948                      
  14     2      0.124218E-03      0.188633E-06     0.1810818340   -306.4513062457                      
  14     3      0.388352E-03     -0.999322E-07     0.1828200350   -306.4495680447                      
  14     4      0.890991E-03      0.209766E-06     0.2200949506   -306.4122931291                      
  14     5      0.235784E-03     -0.493735E-06     0.2342971871   -306.3980908926                      
  14     6      0.275967E-02     -0.153911E-04     0.2429335844   -306.3894544953                      
 
  15     1      0.133206E-02     -0.580433E-05     0.1745972806   -306.4577907991                      
  15     2      0.629830E-04      0.528236E-07     0.1810818868   -306.4513061929  Converged           
  15     3      0.198924E-03      0.629004E-09     0.1828200357   -306.4495680440                      
  15     4      0.513476E-03     -0.927631E-06     0.2200940230   -306.4122940567                      
  15     5      0.144049E-03      0.273746E-06     0.2342974609   -306.3980906188                      
  15     6      0.172027E-02     -0.291128E-05     0.2429306731   -306.3894574066                      
 
  16     1      0.650911E-03     -0.359582E-05     0.1745936848   -306.4577943949                      
  16     3      0.991379E-04      0.505807E-07     0.1828200862   -306.4495679934  Converged           
  16     4      0.284910E-03     -0.377850E-06     0.2200936451   -306.4122944346                      
  16     5      0.894940E-04     -0.146248E-06     0.2342973146   -306.3980907651  Converged           
  16     6      0.106152E-02     -0.397676E-05     0.2429266963   -306.3894613833                      
 
  17     1      0.318107E-03     -0.159907E-05     0.1745920857   -306.4577959940                      
  17     4      0.150646E-03     -0.874659E-07     0.2200935577   -306.4122945220                      
  17     6      0.678336E-03     -0.185404E-05     0.2429248423   -306.3894632374                      
 
  18     1      0.164381E-03      0.137462E-06     0.1745922232   -306.4577958565                      
  18     4      0.845874E-04      0.502260E-07     0.2200936079   -306.4122944718  Converged           
  18     6      0.469940E-03     -0.775804E-06     0.2429240665   -306.3894640132                      
 
  19     1      0.834993E-04     -0.233748E-06     0.1745919894   -306.4577960903  Converged           
  19     6      0.297985E-03     -0.581483E-06     0.2429234850   -306.3894645947                      
 
  20     6      0.177712E-03     -0.192934E-06     0.2429232921   -306.3894647876                      
 
  21     6      0.102200E-03      0.343381E-06     0.2429236355   -306.3894644442                      
 
  22     6      0.603648E-04     -0.177723E-07     0.2429236177   -306.3894644620  Converged           

  Results for state  2.1: Excitation energy         0.17459199 au        4.751 eV       38318.51 cm-1                                        

  Coefficient     Excitation
     0.64097     23.1 -> 26.1
     0.34811     20.1 -> 26.1
    -0.27332     23.1 -> 33.1
    -0.17242     23.1 -> 39.1
     0.16980     23.1 -> 29.1
     0.15577     23.1 -> 36.1
    -0.13972     20.1 -> 33.1
    -0.13518     23.1 -> 27.1
     0.12925     23.1 -> 35.1
     0.12138     16.1 -> 26.1
    -0.11115     23.1 -> 34.1
    -0.10889     20.1 -> 39.1
    -0.10049     23.1 -> 31.1

  Contribution of reference determinant      0.00139

  Results for state  3.1: Excitation energy         0.18108188 au        4.927 eV       39742.88 cm-1                                        

  Coefficient     Excitation
     0.57058     25.1 -> 32.1
     0.43066     24.1 -> 33.1
    -0.41061     24.1 -> 26.1
    -0.21058     25.1 -> 49.1
     0.18695     25.1 -> 26.1
    -0.14285     24.1 -> 34.1
    -0.12996     24.1 -> 29.1
     0.11887     24.1 -> 31.1
    -0.11792     24.1 -> 47.1

  Contribution of reference determinant      0.00792

  Results for state  4.1: Excitation energy         0.18282002 au        4.975 eV       40124.36 cm-1                                        

  Coefficient     Excitation
    -0.79622     25.1 -> 26.1
     0.25827     25.1 -> 33.1
    -0.15058     25.1 -> 29.1
    -0.14645     25.1 -> 35.1
    -0.14464     25.1 -> 36.1
    -0.14069     22.1 -> 26.1
     0.13515     25.1 -> 32.1
     0.11900     25.1 -> 27.1
     0.10064     24.1 -> 33.1
    -0.10006     24.1 -> 26.1

  Contribution of reference determinant     -0.03125

  Results for state  5.1: Excitation energy         0.22009357 au        5.989 eV       48304.96 cm-1                                        

  Coefficient     Excitation
    -0.74838     24.1 -> 26.1
    -0.41920     25.1 -> 32.1
    -0.23476     24.1 -> 35.1
    -0.20643     24.1 -> 36.1
     0.13037     24.1 -> 34.1
     0.12089     25.1 -> 49.1

  Contribution of reference determinant     -0.00091

  Results for state  6.1: Excitation energy         0.23429726 au        6.376 eV       51422.30 cm-1                                        

  Coefficient     Excitation
    -0.83025     25.1 -> 27.1
    -0.19738     25.1 -> 26.1
    -0.18437     25.1 -> 39.1
     0.16407     25.1 -> 29.1
     0.14538     25.1 -> 43.1
    -0.14167     25.1 -> 33.1
    -0.13149     25.1 -> 44.1
     0.13081     24.1 -> 32.1
    -0.12214     25.1 -> 36.1
    -0.11494     25.1 -> 35.1

  Contribution of reference determinant      0.01049

  Results for state  7.1: Excitation energy         0.24292362 au        6.610 eV       53315.57 cm-1                                        

  Coefficient     Excitation
     0.59898     24.1 -> 32.1
    -0.40137     25.1 -> 33.1
     0.34991     25.1 -> 34.1
     0.25414     25.1 -> 27.1
    -0.20282     25.1 -> 36.1
    -0.17697     25.1 -> 35.1
    -0.16202     24.1 -> 49.1
    -0.14489     25.1 -> 31.1
    -0.13541     25.1 -> 43.1
     0.11427     25.1 -> 29.1
    -0.11290     25.1 -> 54.1
     0.11023     25.1 -> 47.1

  Contribution of reference determinant      0.01569


  Final Results:
  ==============

  State    Exc. Energy    Total Energy     Weight(S)     Weight(D)      Delta E    Conv   Max. Coef.     Excitation
   1.1     0.00000000    -306.63238808     0.771E-02     0.288E+00     0.686E-06     Y
   2.1     0.17459199    -306.45779609     0.908E+00     0.918E-01    -0.234E-06     Y     0.64097     23.1 -> 26.1
   3.1     0.18108188    -306.45130620     0.896E+00     0.104E+00     0.528E-07     Y     0.57058     25.1 -> 32.1
   4.1     0.18282002    -306.44956806     0.909E+00     0.898E-01     0.506E-07     Y    -0.79622     25.1 -> 26.1
   5.1     0.22009357    -306.41229451     0.908E+00     0.918E-01     0.502E-07     Y    -0.74838     24.1 -> 26.1
   6.1     0.23429726    -306.39809082     0.934E+00     0.659E-01    -0.146E-06     Y    -0.83025     25.1 -> 27.1
   7.1     0.24292362    -306.38946446     0.937E+00     0.624E-01    -0.178E-07     Y     0.59898     24.1 -> 32.1


 **********************************************************************************************************************************
 DATASETS  * FILE   NREC   LENGTH (MB)   RECORD NAMES
              1      20     1114.09       500      610      700      900      950      970     1000      129      960     1100   
                                          VAR    BASINP    GEOM    SYMINP    ZMAT    AOBASIS   BASIS     P2S    ABASIS      S 
                                         1400     1410     1200     1210     1080     1600     1650     1300     1700     1380   
                                           T        V       H0       H01     AOSYM     SMH    MOLCAS    ERIS     OPER     JKOP   
 
              2       5        2.13       500      610      700     1000     2100   
                                          VAR    BASINP    GEOM     BASIS     RHF  
 
 PROGRAMS   *        TOTAL      CCSD        HF       INT      CCSD        HF       INT      FILE
 CPU TIMES  *     33887.19  16621.42     18.27     24.52  17168.35     30.00     24.57      0.00
 REAL TIME  *     43209.19 SEC
 DISK USED  *        15.10 GB      
 GA USED    *         0.00 MB       (max)       0.00 MB       (current)
 **********************************************************************************************************************************
 SETTING E1(2)          =      -306.63238808  AU                              
 SETTING E2(2)          =      -306.45779609  AU                              
 SETTING E3(2)          =      -306.45130620  AU                              
 SETTING E4(2)          =      -306.44956806  AU                              
 SETTING E5(2)          =      -306.41229451  AU                              
 SETTING E6(2)          =      -306.39809082  AU                              
 SETTING E7(2)          =      -306.38946446  AU                              

 DO N                   =         3.00000000   
 SETTING B7             =         1.33000000                                  


 Recomputing integrals since geometry changed

1PROGRAM * SEWARD (Integral evaluation for generally contracted gaussian basis sets)     Author: Roland Lindh, 1990

 Geometry written to block  1 of record 700

 Orientation using atomic masses  
 Molecule type: Asymmetric top
 Rotational constants:       2.5773817      1.7817853      5.5776771 GHz

 Point group  C1  



 ATOMIC COORDINATES

 NR  ATOM    CHARGE       X              Y              Z

   1  C       6.00    0.069201277    0.056564154   -1.736578338
   2  C       6.00    2.325308605    0.031833083   -0.355037457
   3  C       6.00    2.245643512   -0.015392175    2.288957694
   4  C       6.00   -0.071978191   -0.037983028    3.556799454
   5  C       6.00   -2.318767416   -0.012918638    2.156585321
   6  C       6.00   -2.258618046    0.034215027   -0.482255859
   7  O       8.00    0.013838354    0.102824779   -4.326388140
   8  H       1.00   -0.003162399   -2.267619267   -5.161590281
   9  H       1.00    4.133760532    0.049329226   -1.336972441
  10  H       1.00    4.005166893   -0.034364435    3.348758170
  11  H       1.00   -0.128763062   -0.074619043    5.607929114
  12  H       1.00   -4.132383812   -0.030100451    3.120929594
  13  H       1.00   -3.984526422    0.054086729   -1.592456289

 Bond lengths in Bohr (Angstrom)

 1-2  2.645616584  1-6  2.644346264  1-7  2.590814526  2-3  2.645616584  2-9  2.057911757
     (1.400000000)     (1.399327776)     (1.371000000)     (1.400000000)     (1.089000000)

  3- 4  2.641837132   3-10  2.054132305   4- 5  2.647506310   4-11  2.052242579   5- 6  2.639947406
       (1.398000000)       (1.087000000)       (1.401000000)       (1.086000000)       (1.397000000)

  5-12  2.054132305   6-13  2.052242579   7- 8  2.513335755
       (1.087000000)       (1.086000000)       (1.330000000)

 Bond angles

  1- 2- 3  119.76000000   1- 2- 9  120.01000000   1- 6- 5  119.62692443   1- 6-13  118.92307557

  1-7-8  108.39000000   2-1-6  120.19307557   2-1-7  122.71000000   2-3-4  120.41000000

  2- 3-10  119.34000000   3- 2- 9  120.23000000   3- 4- 5  119.38000000   3- 4-11  120.27000000

  4- 3-10  120.25000000   4- 5- 6  120.63000000   4- 5-12  120.06000000   5- 4-11  120.35000000

  5- 6-13  121.45000000   6- 1- 7  117.09692443   6- 5-12  119.31000000

 NUCLEAR CHARGE:                   50
 NUMBER OF PRIMITIVE AOS:         306
 NUMBER OF SYMMETRY AOS:          299
 NUMBER OF CONTRACTIONS:          196   ( 196A   )
 NUMBER OF CORE ORBITALS:           7   (   7A   )
 NUMBER OF VALENCE ORBITALS:       34   (  34A   )


 NUCLEAR REPULSION ENERGY  268.59357950


 Eigenvalues of metric

         1 0.128E-05 0.115E-04 0.208E-04 0.252E-04 0.389E-04 0.411E-04 0.164E-03 0.540E-03
 

 Contracted 2-electron integrals neglected if value below      1.0D-12
 AO integral compression algorithm  1   Integral accuracy      1.0D-12

     748.683 MB (compressed) written to integral file ( 45.6%)

     Node minimum: 748.683 MB, node maximum: 748.683 MB
 

 NUMBER OF SORTED TWO-ELECTRON INTEGRALS:  186370471.     BUFFER LENGTH:  32768
 NUMBER OF SEGMENTS:  12  SEGMENT LENGTH:   15999503      RECORD LENGTH: 524288

 Memory used in sort:      16.56 MW

 SORT1 READ   205294713. AND WROTE   160604117. INTEGRALS IN    465 RECORDS. CPU TIME:     3.94 SEC, REAL TIME:     8.43 SEC
 SORT2 READ   160604117. AND WROTE   186370471. INTEGRALS IN   2856 RECORDS. CPU TIME:     4.67 SEC, REAL TIME:    25.11 SEC

 Node minimum:   186370471.  Node maximum:   186370471. integrals

 OPERATOR DM      FOR CENTER  0  COORDINATES:    0.000000    0.000000    0.000000


 **********************************************************************************************************************************
 DATASETS  * FILE   NREC   LENGTH (MB)   RECORD NAMES
              1      19      672.09       500      610      700      900      950      970     1000      129      960     1100   
                                          VAR    BASINP    GEOM    SYMINP    ZMAT    AOBASIS   BASIS     P2S    ABASIS      S 
                                         1400     1410     1200     1210     1080     1600     1650     1300     1700   
                                           T        V       H0       H01     AOSYM     SMH    MOLCAS    ERIS     OPER   
 
              2       5        2.13       500      610      700     1000     2100   
                                          VAR    BASINP    GEOM     BASIS     RHF  
 
 PROGRAMS   *        TOTAL       INT      CCSD        HF       INT      CCSD        HF       INT      FILE
 CPU TIMES  *     33911.49     24.30  16621.42     18.27     24.52  17168.35     30.00     24.57      0.00
 REAL TIME  *     43265.88 SEC
 DISK USED  *        15.10 GB      
 GA USED    *         0.00 MB       (max)       0.00 MB       (current)
 **********************************************************************************************************************************

1PROGRAM * RHF-SCF (CLOSED SHELL)       Authors: W. Meyer, H.-J. Werner


 NUMBER OF ELECTRONS:      25+   25-    SPACE SYMMETRY=1    SPIN SYMMETRY=Singlet 
 CONVERGENCE THRESHOLDS:    1.00E-05 (Density)    1.00E-07 (Energy)
 MAX. NUMBER OF ITERATIONS:       60
 INTERPOLATION TYPE:            DIIS
 INTERPOLATION STEPS:              2 (START)      1 (STEP)
 LEVEL SHIFTS:                  0.00 (CLOSED)  0.00 (OPEN) 



 Molecular orbitals read from record     2100.2  Type=RHF/CANONICAL (state 1.1)

 Molecular orbital dump at record        2100.2

 ITERATION    DDIFF          GRAD             ENERGY        2-EL.EN.            DIPOLE MOMENTS         DIIS
    1      0.000D+00      0.000D+00      -305.55705415    745.420002  -0.000674  -0.767682   0.217086    0
    2      0.000D+00      0.543D-04      -305.55706834    745.392924  -0.000716  -0.765580   0.215593    1
    3      0.312D-03      0.164D-04      -305.55706989    745.403668  -0.000661  -0.765109   0.218710    2
    4      0.735D-04      0.878D-05      -305.55707041    745.395941  -0.000692  -0.763667   0.218653    3
    5      0.441D-04      0.299D-05      -305.55707054    745.396073  -0.000679  -0.763362   0.219461    4
    6      0.199D-04      0.903D-06      -305.55707055    745.395754  -0.000687  -0.763033   0.219661    5
    7      0.157D-04      0.294D-06      -305.55707056    745.395780  -0.000680  -0.763038   0.219771    6
    8      0.255D-05      0.143D-06      -305.55707056    745.395726  -0.000684  -0.763034   0.219725    0
 
 Final occupancy:  25
 
 !RHF STATE 1.1 Energy               -305.557070555212
 Nuclear energy                       268.59357950
 One-electron energy                 -946.84851325
 Two-electron energy                  372.69786320
 Virial quotient                       -1.00246675
 !RHF STATE 1.1 Dipole moment          -0.00068392    -0.76303391     0.21972548
 Dipole moment /Debye                  -0.00173825    -1.93931172     0.55844988

 Orbital energies:

         1.1          2.1          3.1          4.1          5.1          6.1          7.1          8.1          9.1         10.1
    -20.602544   -11.297269   -11.245227   -11.244240   -11.238821   -11.238276   -11.235566    -1.354346    -1.143761    -1.019625

        11.1         12.1         13.1         14.1         15.1         16.1         17.1         18.1         19.1         20.1
     -0.997153    -0.836591    -0.812543    -0.704899    -0.658593    -0.648243    -0.610033    -0.591042    -0.586322    -0.524274

        21.1         22.1         23.1         24.1         25.1         26.1         27.1
     -0.517966    -0.485928    -0.468444    -0.340916    -0.323771     0.028199     0.043966


 **********************************************************************************************************************************
 DATASETS  * FILE   NREC   LENGTH (MB)   RECORD NAMES
              1      19      672.09       500      610      700      900      950      970     1000      129      960     1100   
                                          VAR    BASINP    GEOM    SYMINP    ZMAT    AOBASIS   BASIS     P2S    ABASIS      S 
                                         1400     1410     1200     1210     1080     1600     1650     1300     1700   
                                           T        V       H0       H01     AOSYM     SMH    MOLCAS    ERIS     OPER   
 
              2       5        2.13       500      610      700     1000     2100   
                                          VAR    BASINP    GEOM     BASIS     RHF  
 
 PROGRAMS   *        TOTAL        HF       INT      CCSD        HF       INT      CCSD        HF       INT      FILE
 CPU TIMES  *     33930.28     18.79     24.30  16621.42     18.27     24.52  17168.35     30.00     24.57      0.00
 REAL TIME  *     43287.75 SEC
 DISK USED  *        15.10 GB      
 GA USED    *         0.00 MB       (max)       0.00 MB       (current)
 **********************************************************************************************************************************


1PROGRAM * CCSD (Closed-shell coupled cluster)     Authors: C. Hampel, H.-J. Werner, 1991, M. Deegan, P.J. Knowles, 1992


 States requested for EOM calculation: 2.1 3.1 4.1 5.1 6.1 7.1

 Convergence thresholds:  THRVAR = 1.00D-10  THRDEN = 1.00D-06

 Number of core orbitals:           7 (   7 )
 Number of closed-shell orbitals:  18 (  18 )
 Number of external orbitals:     171 ( 171 )
 
 Molecular orbitals read from record     2100.2  Type=RHF/CANONICAL (state 1.1)

 Number of N-1 electron functions:              18
 Number of N-2 electron functions:             171
 Number of singly external CSFs:              3078
 Number of doubly external CSFs:           4738581
 Total number of CSFs:                     4741660

 Length of J-op  integral file:               0.00 MB
 Length of K-op  integral file:               2.68 MB
[...]


 RESULTS
 =======
 
  Reference energy                   -305.551880079447
  CCSD singlet pair energy             -0.711094987172
  CCSD triplet pair energy             -0.362981782172
  CCSD correlation energy              -1.074076877858
 
 !CCSD Energy                        -306.625956957304

 Program statistics:

 Available memory in ccsd:               127998928
 Min. memory needed in ccsd:              11709288
 Max. memory used in ccsd:                16017561
 Max. memory used in cckext:              13676230 (12 integral passes)

 Reset NCCKEXT to 0 because of MPP

 Starting EOM-CCSD program.     Author: T. Korona (1999)

 

 EOM-CCSD FOR    6 EXCITED STATES OF SYMMETRY 1    STATE(S)  1  2  3  4  5  6
 

 Number of N-1 electron functions:              18
 Number of N-2 electron functions:             171
 Number of singly external CSFs:              3078
 Number of doubly external CSFs:           4738581
 Total number of CSFs:                     4741660

 Iter. Vector     |HC-EC|         E_new-E_old   Excitation energy    Total energy
 
   0     1      0.419896E+00      0.306418E+00     0.3064181882   -306.3195387691                      
   0     2      0.394902E+00      0.334276E+00     0.3342763715   -306.2916805858                      
   0     3      0.350835E+00      0.335356E+00     0.3353564876   -306.2906004697                      
   0     4      0.342142E+00      0.349825E+00     0.3498252222   -306.2761317351                      
   0     5      0.331554E+00      0.350778E+00     0.3507779480   -306.2751790093                      
   0     6      0.330772E+00      0.358699E+00     0.3586988031   -306.2672581542                      
 
   1     1      0.147627E+00     -0.105415E+00     0.2010029995   -306.4249539578                      
   1     2      0.160316E+00     -0.114947E+00     0.2193298229   -306.4066271344                      
   1     3      0.113702E+00     -0.882153E-01     0.2471412195   -306.3788157378                      
   1     4      0.128938E+00     -0.876714E-01     0.2621537740   -306.3638031833                      
   1     5      0.126875E+00     -0.860647E-01     0.2647132572   -306.3612437001                      
   1     6      0.122899E+00     -0.848766E-01     0.2738221652   -306.3521347921                      
 
   2     1      0.732857E-01     -0.162010E-01     0.1848019828   -306.4411549745                      
   2     2      0.832706E-01     -0.212563E-01     0.1980735030   -306.4278834543                      
   2     3      0.460863E-01     -0.972583E-02     0.2374153866   -306.3885415707                      
   2     4      0.605483E-01     -0.142669E-01     0.2478869188   -306.3780700385                      
   2     5      0.446657E-01     -0.104681E-01     0.2542451820   -306.3717117753                      
   2     6      0.479834E-01     -0.116898E-01     0.2621323974   -306.3638245599                      
 
   3     1      0.455775E-01     -0.464022E-02     0.1801617592   -306.4457951981                      
   3     2      0.626818E-01     -0.913607E-02     0.1889374302   -306.4370195271                      
   3     3      0.260207E-01     -0.225694E-02     0.2351584429   -306.3907985144                      
   3     4      0.415436E-01     -0.398609E-02     0.2439008256   -306.3820561317                      
   3     5      0.260311E-01     -0.225438E-02     0.2519908030   -306.3739661543                      
   3     6      0.286742E-01     -0.247542E-02     0.2596569805   -306.3662999768                      
 
   4     1      0.278346E-01     -0.145265E-02     0.1787091048   -306.4472478525                      
   4     2      0.469749E-01     -0.379458E-02     0.1851428516   -306.4408141057                      
   4     3      0.152287E-01     -0.537099E-03     0.2346213437   -306.3913356136                      
   4     4      0.658121E-01     -0.366355E-02     0.2402372792   -306.3857196781                      
   4     5      0.202116E-01     -0.623074E-03     0.2513677293   -306.3745892280                      
   4     6      0.296806E-01     -0.101499E-02     0.2586419895   -306.3673149678                      
 
   5     1      0.160227E-01     -0.568713E-03     0.1781403920   -306.4478165653                      
   5     2      0.395749E-01     -0.325399E-02     0.1818888625   -306.4440680948                      
   5     3      0.919484E-01     -0.535189E-02     0.2292694491   -306.3966875082                      
   5     4      0.106815E-01     -0.584464E-02     0.2343926415   -306.3915643159                      
   5     5      0.314345E-01     -0.925013E-03     0.2504427167   -306.3755142406                      
   5     6      0.647103E-01     -0.246950E-02     0.2561724897   -306.3697844676                      
 
   6     1      0.870613E-02     -0.146208E-03     0.1779941839   -306.4479627734                      
   6     2      0.231730E-01     -0.156281E-02     0.1803260488   -306.4456309085                      
   6     3      0.601394E-01     -0.909994E-02     0.2201695116   -306.4057874457                      
   6     4      0.761403E-02     -0.943582E-04     0.2342982832   -306.3916586741                      
   6     5      0.331534E-01     -0.187285E-02     0.2485698698   -306.3773870875                      
   6     6      0.308265E-01     -0.375458E-02     0.2524179133   -306.3735390440                      
 
   7     1      0.533160E-02     -0.634025E-04     0.1779307813   -306.4480261760                      
   7     2      0.108206E-01     -0.540945E-03     0.1797851041   -306.4461718532                      
   7     3      0.452594E-01     -0.388557E-02     0.2162839376   -306.4096730197                      
   7     4      0.830682E-02     -0.708958E-04     0.2342273874   -306.3917295699                      
   7     5      0.524123E-01     -0.141577E-02     0.2471540978   -306.3788028595                      
   7     6      0.463821E-01     -0.520101E-02     0.2472169015   -306.3787400558                      
 
   8     1      0.106035E-01     -0.484218E-04     0.1778823595   -306.4480745978                      
   8     2      0.970249E-02     -0.151486E-03     0.1796336182   -306.4463233391                      
   8     3      0.171306E+00     -0.205598E-01     0.1957241755   -306.4302327818                      
   8     4      0.662341E-01     -0.148844E-01     0.2193430102   -306.4066139471                      
   8     5      0.683473E-02     -0.129124E-01     0.2342416979   -306.3917152594                      
   8     6      0.328603E-01     -0.297649E-02     0.2442404150   -306.3817165423                      
 
   9     1      0.805349E-01     -0.586726E-02     0.1720150968   -306.4539418605                      
   9     2      0.130829E-01     -0.155758E-02     0.1780760398   -306.4478809175                      
   9     3      0.978486E-02     -0.159174E-01     0.1798067842   -306.4461501731                      
   9     4      0.177481E-01     -0.174325E-02     0.2175997599   -306.4083571974                      
   9     5      0.264663E-02     -0.259213E-04     0.2342157765   -306.3917411808                      
   9     6      0.166153E-01     -0.945052E-03     0.2432953633   -306.3826615940                      
 
  10     1      0.408622E-01     -0.471520E-02     0.1672998968   -306.4586570605                      
  10     2      0.393786E-02     -0.602679E-04     0.1780157719   -306.4479411854                      
  10     3      0.301567E-02     -0.731649E-04     0.1797336193   -306.4462233380                      
  10     4      0.917545E-02     -0.250363E-03     0.2173493965   -306.4086075608                      
  10     5      0.149315E-02     -0.106185E-04     0.2342051580   -306.3917517993                      
  10     6      0.930331E-02     -0.236778E-03     0.2430585850   -306.3828983723                      
 
  11     1      0.206085E-01     -0.107786E-02     0.1662220336   -306.4597349237                      
  11     2      0.190036E-02     -0.133663E-04     0.1780024056   -306.4479545517                      
  11     3      0.138765E-02     -0.655446E-05     0.1797270648   -306.4462298925                      
  11     4      0.511497E-02     -0.723871E-04     0.2172770094   -306.4086799479                      
  11     5      0.989019E-03     -0.357134E-05     0.2342015867   -306.3917553706                      
  11     6      0.650088E-02     -0.861025E-04     0.2429724825   -306.3829844748                      
 
  12     1      0.997354E-02     -0.182893E-03     0.1660391404   -306.4599178169                      
  12     2      0.954373E-03     -0.329195E-05     0.1779991136   -306.4479578437                      
  12     3      0.691990E-03     -0.101078E-05     0.1797260540   -306.4462309033                      
  12     4      0.282832E-02     -0.235127E-04     0.2172534967   -306.4087034606                      
  12     5      0.721721E-03     -0.641774E-07     0.2342015225   -306.3917554348                      
  12     6      0.463838E-02     -0.470010E-04     0.2429254815   -306.3830314758                      
 
  13     1      0.437819E-02     -0.331195E-04     0.1660060209   -306.4599509364                      
  13     2      0.438349E-03     -0.677178E-06     0.1779984365   -306.4479585209                      
  13     3      0.312219E-03      0.199696E-06     0.1797262537   -306.4462307036                      
  13     4      0.142361E-02     -0.387978E-05     0.2172496170   -306.4087073403                      
  13     5      0.475223E-03     -0.280755E-06     0.2342012417   -306.3917557156                      
  13     6      0.307950E-02     -0.178082E-04     0.2429076733   -306.3830492840                      
 
  14     1      0.213117E-02     -0.100715E-04     0.1659959494   -306.4599610079                      
  14     2      0.220997E-03      0.516722E-07     0.1779984881   -306.4479584692                      
  14     3      0.160320E-03      0.217939E-06     0.1797264717   -306.4462304857                      
  14     4      0.811241E-03     -0.264554E-05     0.2172469714   -306.4087099859                      
  14     5      0.269323E-03     -0.170381E-06     0.2342010714   -306.3917558859                      
  14     6      0.190101E-02     -0.934949E-05     0.2428983238   -306.3830586335                      
 
  15     1      0.102431E-02     -0.414474E-05     0.1659918046   -306.4599651527                      
  15     2      0.109626E-03     -0.116847E-06     0.1779983713   -306.4479585860                      
  15     3      0.800991E-04      0.872491E-07     0.1797265589   -306.4462303984  Converged           
  15     4      0.453257E-03      0.311621E-06     0.2172472830   -306.4087096743                      
  15     5      0.168302E-03      0.233766E-06     0.2342013051   -306.3917556522                      
  15     6      0.114379E-02     -0.164786E-05     0.2428966759   -306.3830602814                      
 
  16     1      0.501506E-03     -0.226116E-05     0.1659895435   -306.4599674138                      
  16     2      0.547361E-04      0.656266E-07     0.1779984369   -306.4479585204  Converged           
  16     4      0.249697E-03     -0.109475E-06     0.2172471736   -306.4087097837                      
  16     5      0.991335E-04     -0.428260E-07     0.2342012623   -306.3917556950  Converged           
  16     6      0.781358E-03     -0.272419E-05     0.2428939517   -306.3830630056                      
 
  17     1      0.243847E-03     -0.253512E-06     0.1659892900   -306.4599676673                      
  17     4      0.133659E-03      0.162868E-06     0.2172473364   -306.4087096209                      
  17     6      0.501698E-03     -0.548006E-06     0.2428934037   -306.3830635536                      
 
  18     1      0.126146E-03     -0.186009E-06     0.1659891039   -306.4599678534                      
  18     4      0.768320E-04     -0.160626E-06     0.2172471758   -306.4087097815  Converged           
  18     6      0.362532E-03     -0.120745E-05     0.2428921963   -306.3830647610                      
 
  19     1      0.651163E-04     -0.166990E-06     0.1659889370   -306.4599680203  Converged           
  19     6      0.231707E-03     -0.111672E-06     0.2428920846   -306.3830648727                      
 
  20     6      0.139428E-03      0.253763E-06     0.2428923384   -306.3830646189                      
 
  21     6      0.861491E-04     -0.154031E-07     0.2428923230   -306.3830646344  Converged           

  Results for state  2.1: Excitation energy         0.16598894 au        4.517 eV       36430.36 cm-1                                        

  Coefficient     Excitation
    -0.65441     23.1 -> 26.1
    -0.35850     20.1 -> 26.1
     0.28311     23.1 -> 33.1
    -0.15979     23.1 -> 29.1
     0.15676     23.1 -> 38.1
     0.15034     20.1 -> 33.1
    -0.13930     23.1 -> 35.1
    -0.13532     23.1 -> 36.1
    -0.12708     16.1 -> 26.1
     0.11809     23.1 -> 27.1

  Contribution of reference determinant     -0.00076

  Results for state  3.1: Excitation energy         0.17799846 au        4.844 eV       39066.15 cm-1                                        

  Coefficient     Excitation
     0.81125     25.1 -> 26.1
    -0.27292     25.1 -> 33.1
     0.14854     25.1 -> 35.1
     0.14141     25.1 -> 29.1
     0.14095     22.1 -> 26.1
     0.11780     25.1 -> 36.1
     0.10988     25.1 -> 32.1
    -0.10275     25.1 -> 27.1

  Contribution of reference determinant      0.03432

  Results for state  4.1: Excitation energy         0.17972657 au        4.891 eV       39445.42 cm-1                                        

  Coefficient     Excitation
     0.55171     25.1 -> 32.1
    -0.47013     24.1 -> 26.1
     0.40051     24.1 -> 33.1
    -0.20375     25.1 -> 49.1
    -0.18219     24.1 -> 34.1
    -0.17300     25.1 -> 26.1
    -0.13128     24.1 -> 29.1
     0.11896     24.1 -> 31.1
    -0.11444     24.1 -> 47.1

  Contribution of reference determinant     -0.00679

  Results for state  5.1: Excitation energy         0.21724721 au        5.912 eV       47680.25 cm-1                                        

  Coefficient     Excitation
     0.72215     24.1 -> 26.1
     0.45306     25.1 -> 32.1
     0.25262     24.1 -> 35.1
     0.17979     24.1 -> 36.1
    -0.14599     24.1 -> 34.1
    -0.13352     25.1 -> 49.1

  Contribution of reference determinant      0.00099

  Results for state  6.1: Excitation energy         0.23420126 au        6.373 eV       51401.24 cm-1                                        

  Coefficient     Excitation
     0.84061     25.1 -> 27.1
     0.18866     25.1 -> 38.1
     0.16936     25.1 -> 26.1
    -0.16182     25.1 -> 29.1
    -0.14375     25.1 -> 43.1
     0.13132     25.1 -> 44.1
     0.12799     25.1 -> 35.1
     0.12192     25.1 -> 33.1
    -0.12132     24.1 -> 32.1
     0.10472     25.1 -> 36.1

  Contribution of reference determinant     -0.01046

  Results for state  7.1: Excitation energy         0.24289232 au        6.609 eV       53308.70 cm-1                                        

  Coefficient     Excitation
     0.60159     24.1 -> 32.1
     0.40033     25.1 -> 34.1
    -0.34193     25.1 -> 33.1
     0.23495     25.1 -> 27.1
    -0.21119     25.1 -> 35.1
    -0.19591     25.1 -> 36.1
    -0.16275     24.1 -> 49.1
    -0.14585     25.1 -> 31.1
    -0.13152     25.1 -> 43.1
     0.11974     25.1 -> 29.1
     0.11247     25.1 -> 47.1
    -0.10550     25.1 -> 54.1

  Contribution of reference determinant      0.01579


  Final Results:
  ==============

  State    Exc. Energy    Total Energy     Weight(S)     Weight(D)      Delta E    Conv   Max. Coef.     Excitation
   1.1     0.00000000    -306.62595696     0.787E-02     0.289E+00     0.775E-06     Y
   2.1     0.16598894    -306.45996802     0.904E+00     0.962E-01    -0.167E-06     Y    -0.65441     23.1 -> 26.1
   3.1     0.17799846    -306.44795849     0.906E+00     0.931E-01     0.656E-07     Y     0.81125     25.1 -> 26.1
   4.1     0.17972657    -306.44623039     0.894E+00     0.106E+00     0.872E-07     Y     0.55171     25.1 -> 32.1
   5.1     0.21724721    -306.40870974     0.906E+00     0.944E-01    -0.161E-06     Y     0.72215     24.1 -> 26.1
   6.1     0.23420126    -306.39175569     0.934E+00     0.660E-01    -0.428E-07     Y     0.84061     25.1 -> 27.1
   7.1     0.24289232    -306.38306463     0.937E+00     0.628E-01    -0.154E-07     Y     0.60159     24.1 -> 32.1


 **********************************************************************************************************************************
 DATASETS  * FILE   NREC   LENGTH (MB)   RECORD NAMES
              1      20     1114.01       500      610      700      900      950      970     1000      129      960     1100   
                                          VAR    BASINP    GEOM    SYMINP    ZMAT    AOBASIS   BASIS     P2S    ABASIS      S 
                                         1400     1410     1200     1210     1080     1600     1650     1300     1700     1380   
                                           T        V       H0       H01     AOSYM     SMH    MOLCAS    ERIS     OPER     JKOP   
 
              2       5        2.13       500      610      700     1000     2100   
                                          VAR    BASINP    GEOM     BASIS     RHF  
 
 PROGRAMS   *        TOTAL      CCSD        HF       INT      CCSD        HF       INT      CCSD        HF       INT      CCSD
 CPU TIMES  *     87453.92  19833.55     19.31     26.93  17185.25     19.14     24.37  16415.06     18.79     24.30  16621.42
 REAL TIME  *    109117.52 SEC
 DISK USED  *        15.10 GB      
 GA USED    *         0.00 MB       (max)       0.00 MB       (current)
 **********************************************************************************************************************************
 SETTING E1(5)          =      -306.62595696  AU                              
 SETTING E2(5)          =      -306.45996802  AU                              
 SETTING E3(5)          =      -306.44795849  AU                              
 SETTING E4(5)          =      -306.44623039  AU                              
 SETTING E5(5)          =      -306.40870974  AU                              
 SETTING E6(5)          =      -306.39175569  AU                              
 SETTING E7(5)          =      -306.38306463  AU                              
                                                                                                                                                                                                                                                                
 
   R(OH)        E(S0)          EX(1.1)        EX(2.1)        EX(3.1)        EX(4.1)        EX(5.1)        EX(6.1)
    1.31   -306.6345507   -306.4570672   -306.4529845   -306.4501858   -306.4134731   -306.4002124   -306.3916163
    1.32   -306.6323881   -306.4577961   -306.4513062   -306.4495681   -306.4122945   -306.3980908   -306.3894645
    1.33   -306.6302339   -306.4585257   -306.4497429   -306.4488650   -306.4111090   -306.3959731   -306.3873208
    1.34   -306.6280897   -306.4592505   -306.4486494   -306.4477288   -306.4099148   -306.3938610   -306.3851870
    1.35   -306.6259570   -306.4599680   -306.4479585   -306.4462304   -306.4087097   -306.3917557   -306.3830646
                                                  

        CCSD            HF-SCF          CCSD            HF-SCF          CCSD            HF-SCF          CCSD            HF-SCF  
   -306.62595696   -305.55188008   -306.62808972   -305.55447200   -306.63023391   -305.55707056   -306.63238808   -305.55967439
 **********************************************************************************************************************************
 Variable memory released
