
 Primary working directories    : /work/tmp/ahs/molpro_32496
 Secondary working directories  : /work/tmp/ahs/molpro_32496
 Wavefunction directory         : /home/user/ahs/molpro_egrad/
 Main file repository           : /work/tmp/ahs/molpro_32496/

 SHA1      : 10702993644f36e05297f9f7ccce90cffe774945
 NAME      : 2015.1.22
 ARCHNAME  : linux/x86_64
 FC        : /opt/intel/composer_xe_2015.1.133/bin/intel64/ifort
 BLASLIB   : -Wl,-_start-group /opt/intel/mkl/lib/intel64/libmkl_intel_ilp64.a /opt/intel/mkl/lib/intel64/libmkl_intel_thread.a /opt/intel/mkl/lib/intel64/libmkl_core.a -Wl,-_end-group
 id        : gwnuqc

 Nodes     nprocs
 hpc          1

 Using customized tuning parameters: mindgm=1; mindgv=20; mindgc=4; mindgr=1; noblas=0; minvec=7
 default implementation of scratch files=df  

 memory,32,m
 
 basis=avdz
 
 symmetry,x
 geometry={
 S
 H 1 R1
 H 1 R2 2 A1}
 
 R1 = 2.3 bohr
 R2 = 2.3 bohr
 A1 = 92.12 degree
 
 {hf;occ,7,2;wf,18,1,0}
 {multi;closed,4,1;occ,10,2;
   wf,18,2,0;state,2;weight,0,1}
 forces
 
 

 Variables initialized (889), CPU time= 0.01 sec
 Commands  initialized (702), CPU time= 0.01 sec, 572 directives.
 Default parameters read. Elapsed time= 0.04 sec

 Checking input...
 Passed
1


                                         ***  PROGRAM SYSTEM MOLPRO  ***
                                       Copyright, TTI GmbH Stuttgart, 2015
                                    Version 2015.1 linked Jul  3 2017 13:45:41


 **********************************************************************************************************************************
 LABEL *                                                                                 
  64 bit serial version                                                                  DATE: 19-Mar-18          TIME: 18:39:25  
 **********************************************************************************************************************************

 SHA1:             10702993644f36e05297f9f7ccce90cffe774945
 **********************************************************************************************************************************

 Variable memory set to   32000000 words,  buffer space   230000 words

 SETTING BASIS          =    AVDZ
 ZSYMEL=X  
 
 SETTING R1             =         2.30000000  BOHR                            
 SETTING R2             =         2.30000000  BOHR                            
 SETTING A1             =        92.12000000  DEGREE                          


 Recomputing integrals since basis changed


 Using spherical harmonics

 Library entry S      S aug-cc-pVDZ          selected for orbital group  1
 Library entry S      P aug-cc-pVDZ          selected for orbital group  1
 Library entry S      D aug-cc-pVDZ          selected for orbital group  1
 Library entry H      S aug-cc-pVDZ          selected for orbital group  2
 Library entry H      P aug-cc-pVDZ          selected for orbital group  2


 PROGRAM * SEWARD (Integral evaluation for generally contracted gaussian basis sets)     Author: Roland Lindh, 1990

 Geometry written to block  1 of record 700

 Orientation using atomic masses  
 Molecule type: Asymmetric top
 User-specified symmetry elements: X
 Symmetry elements: X
 Rotational constants:     174.1987743    373.5755810    326.3990902 GHz  (calculated with average atomic masses)

 Point group  Cs  



 ATOMIC COORDINATES

 NR  ATOM    CHARGE       X              Y              Z

   1  S      16.00    0.000000000   -0.000000000   -0.094415927
   2  H       1.00    0.000000000    1.656153756    1.501564881
   3  H       1.00    0.000000000   -1.656153756    1.501564881

 Bond lengths in Bohr (Angstrom)

 1-2  2.300000000  1-3  2.300000000
     ( 1.217107585)     ( 1.217107585)

 Bond angles

  2-1-3   92.12000000

 NUCLEAR CHARGE:                   18
 NUMBER OF PRIMITIVE AOS:          74
 NUMBER OF SYMMETRY AOS:           72
 NUMBER OF CONTRACTIONS:           45   (  33A'  +  12A"  )
 NUMBER OF CORE ORBITALS:           5   (   4A'  +   1A"  )
 NUMBER OF VALENCE ORBITALS:        6   (   5A'  +   1A"  )


 NUCLEAR REPULSION ENERGY   14.21494781


 Eigenvalues of metric

         1 0.617E-03 0.800E-03 0.878E-02 0.126E-01 0.351E-01 0.395E-01 0.439E-01 0.484E-01
         2 0.374E-01 0.988E-01 0.135E+00 0.475E+00 0.516E+00 0.561E+00 0.652E+00 0.720E+00


 Contracted 2-electron integrals neglected if value below      1.0D-11
 AO integral compression algorithm  1   Integral accuracy      1.0D-11

     1.835 MB (compressed) written to integral file ( 64.6%)


 NUMBER OF SORTED TWO-ELECTRON INTEGRALS:     291996.     BUFFER LENGTH:  32768
 NUMBER OF SEGMENTS:   1  SEGMENT LENGTH:     291996      RECORD LENGTH: 524288

 Memory used in sort:       0.85 MW

 SORT1 READ      392947. AND WROTE      257082. INTEGRALS IN      1 RECORDS. CPU TIME:     0.00 SEC, REAL TIME:     0.01 SEC
 SORT2 READ      257082. AND WROTE      291996. INTEGRALS IN      7 RECORDS. CPU TIME:     0.01 SEC, REAL TIME:     0.02 SEC

 FILE SIZES:   FILE 1:    21.0 MBYTE,  FILE 4:     4.2 MBYTE,   TOTAL:     25.2 MBYTE

 OPERATOR DM      FOR CENTER  0  COORDINATES:    0.000000    0.000000    0.000000


 **********************************************************************************************************************************
 DATASETS  * FILE   NREC   LENGTH (MB)   RECORD NAMES
              1      19       20.46       500      610      700      900      950      970     1000      129      960     1100   
                                          VAR    BASINP    GEOM    SYMINP    ZMAT    AOBASIS   BASIS     P2S    ABASIS      S 
                                         1400     1410     1200     1210     1080     1600     1650     1300     1700   
                                           T        V       H0       H01     AOSYM     SMH    MOLCAS    ERIS     OPER   

 PROGRAMS   *        TOTAL       INT
 CPU TIMES  *         0.19      0.09
 REAL TIME  *         0.31 SEC
 DISK USED  *        25.50 MB      
 **********************************************************************************************************************************


 PROGRAM * RHF-SCF (CLOSED SHELL)       Authors: W. Meyer, H.-J. Werner


 NUMBER OF ELECTRONS:       9+    9-    SPACE SYMMETRY=1    SPIN SYMMETRY: Singlet 
 CONVERGENCE THRESHOLDS:    1.00E-06 (Density)    1.00E-07 (Energy)
 MAX. NUMBER OF ITERATIONS:       60
 INTERPOLATION TYPE:            DIIS
 INTERPOLATION STEPS:              2 (START)      1 (STEP)
 LEVEL SHIFTS:                  0.00 (CLOSED)  0.00 (OPEN) 

 Number of closed-shell orbitals:    9 (   7   2 )


 Orbital guess generated from atomic densities. Full valence occupancy:    9   2

 Molecular orbital dump at record        2100.2

 ITERATION    DDIFF          GRAD             ENERGY        2-EL.EN.            DIPOLE MOMENTS         DIIS   ORB.
    1      0.000D+00      0.000D+00      -398.65985486    332.993723    0.00000    0.00000    0.77681    0    start
    2      0.000D+00      0.692D-02      -398.67606009    331.956621    0.00000    0.00000    0.33961    1    diag
    3      0.192D-01      0.211D-02      -398.67763264    332.307545    0.00000    0.00000    0.45018    2    diag
    4      0.373D-02      0.671D-03      -398.67791787    332.218917    0.00000   -0.00000    0.44709    3    diag
    5      0.186D-02      0.131D-03      -398.67792921    332.230309    0.00000    0.00000    0.44880    4    diag
    6      0.306D-03      0.216D-04      -398.67792948    332.225443    0.00000    0.00000    0.44916    5    diag
    7      0.540D-04      0.572D-05      -398.67792950    332.225924    0.00000   -0.00000    0.44912    6    diag
    8      0.226D-04      0.109D-05      -398.67792950    332.225910    0.00000   -0.00000    0.44908    7    diag
    9      0.418D-05      0.120D-06      -398.67792950    332.225919    0.00000   -0.00000    0.44908    8    diag
   10      0.393D-06      0.186D-07      -398.67792950    332.225918    0.00000   -0.00000    0.44908    0    orth

 Final occupancy:   7   2

 !RHF STATE 1.1 Energy               -398.677929502489
 Nuclear energy                        14.21494781
 One-electron energy                 -579.00583610
 Two-electron energy                  166.11295878
 Virial quotient                       -0.99908851
 !RHF STATE 1.1 Dipole moment           0.00000000    -0.00000000     0.44908293
 Dipole moment /Debye                   0.00000000    -0.00000000     1.14138019

 Orbital energies:

         1.1          2.1          3.1          4.1          5.1          6.1          7.1          8.1          9.1
    -91.952362    -8.962577    -6.645003    -6.643821    -1.022610    -0.625793    -0.510501     0.035470     0.061757

         1.2          2.2          3.2          4.2
     -6.640515    -0.386777     0.124059     0.319661

 HOMO      2.2    -0.386777 =     -10.5247eV
 LUMO      8.1     0.035470 =       0.9652eV
 LUMO-HOMO         0.422247 =      11.4899eV


 **********************************************************************************************************************************
 DATASETS  * FILE   NREC   LENGTH (MB)   RECORD NAMES
              1      19       20.46       500      610      700      900      950      970     1000      129      960     1100   
                                          VAR    BASINP    GEOM    SYMINP    ZMAT    AOBASIS   BASIS     P2S    ABASIS      S 
                                         1400     1410     1200     1210     1080     1600     1650     1300     1700   
                                           T        V       H0       H01     AOSYM     SMH    MOLCAS    ERIS     OPER   

              2       4        2.79       700     1000      520     2100   
                                         GEOM     BASIS   MCVARS     RHF  

 PROGRAMS   *        TOTAL        HF       INT
 CPU TIMES  *         0.24      0.05      0.09
 REAL TIME  *         0.37 SEC
 DISK USED  *        25.50 MB      
 **********************************************************************************************************************************


 PROGRAM * MULTI (Direct Multiconfiguration SCF)       Authors: P.J. Knowles, H.-J. Werner (1984)     S.T. Elbert (1988)


 Number of closed-shell orbitals:   5 (   4   1 )
 Number of active  orbitals:        7 (   6   1 )
 Number of external orbitals:      33 (  23  10 )

 State symmetry 1

 Number of electrons:     8    Spin symmetry=Singlet   Space symmetry=2
 Number of states:        2
 Number of CSFs:        210   (600 determinants, 1225 intermediate states)

 Molecular orbitals read from record     2100.2  Type=RHF/CANONICAL (state 1.1)

 Wavefunction dump at record             2140.2

 Convergence thresholds  0.10E-05 (gradient)  0.10E-07 (energy)  0.10E-02 (step length)

 Weight factors for state symmetry  1:    0.00000   1.00000

 Number of orbital rotations:      275   (    25 Core/Active    102 Core/Virtual   0 Active/Active    148 Active/Virtual)
 Total number of variables:       1475


 ITER. MIC  NCI  NEG     ENERGY(VAR)     ENERGY(PROJ)   ENERGY CHANGE     GRAD(0)  GRAD(ORB)   GRAD(CI)     STEP       TIME

   1  201   14    0    -398.36927648    -398.33739879    0.03187770    0.28093274 0.12655618 0.79043081  0.16D+01      0.08
   2  197   31    0    -397.33450059    -398.25573954   -0.92123895    0.40820284 0.02278121 0.34453828  0.88D+00      0.18
   3  191   28    0    -398.39767634    -398.44761067   -0.04993433    0.22343188 0.00868631 0.08217525  0.99D+00      0.26
   4  195   31    0    -398.35680605    -398.43134470   -0.07453865    0.25427345 0.07342161 0.05405253  0.62D+00      0.35
   5  199   27    0    -398.43192389    -398.45460962   -0.02268573    0.07554421 0.00635379 0.06774557  0.85D+00      0.45
   6  197   33    0    -398.08624022    -398.44855013   -0.36230991    0.40260928 0.01334968 0.10451234  0.56D+00      0.53
   7  195   32    0    -398.34478024    -398.45347973   -0.10869949    0.26370980 0.01691228 0.05078156  0.41D+00      0.62
   8  194   26    0    -398.26945764    -398.47297181   -0.20351417    0.35448602 0.01276391 0.08076520  0.81D+00      0.70
   9  190   29    0    -398.34957810    -398.44197819   -0.09240009    0.31243175 0.01459642 0.07429202  0.52D+00      0.78
  10  195   31    0    -398.44579266    -398.04767515    0.39811751    0.06229984 0.37873614 0.12755033  0.87D+00      0.88
  11  195   35    0    -398.05116239    -398.45513664   -0.40397425    0.39806519 0.04618835 0.07149099  0.82D+00      0.97
  12  184   34    0    -398.42537706    -398.46737244   -0.04199538    0.19044401 0.00408107 0.06866348  0.67D+00      1.07
  13  194   28    0    -398.37003029    -398.46993503   -0.09990475    0.25990659 0.00670772 0.08741260  0.22D+00      1.15
  14  194   28    0    -398.32853228    -398.43679138   -0.10825909    0.34321322 0.02710992 0.13782169  0.75D+00      1.22
  15  194   32    0    -398.37179086    -398.44172457   -0.06993371    0.31375141 0.00720647 0.08188293  0.94D+00      1.31
  16  195   33    0    -398.18527808    -398.48993774   -0.30465966    0.35146617 0.01148552 0.13301815  0.11D+01      1.40
  17  194   34    0    -398.31328963    -398.23108244    0.08220719    0.39385339 0.19549019 0.18744857  0.10D+01      1.47
  18  190   32    0    -398.24808089    -398.13122535    0.11685553    0.22053644 0.39296383 0.13161543  0.47D+00      1.56
  19  191   34    0    -398.13329641    -398.45895937   -0.32566296    0.39466782 0.04935644 0.09688508  0.88D+00      1.64
  20  190   32    0    -398.41742909    -398.08763858    0.32979051    0.20286511 0.40468011 0.15187985  0.87D+00      1.73

 ** WVFN ****  MAXIMUM NUMBER OF ITERATIONS REACHED

 Gradient information for state 2.2 saved on record      5000.1



 Results for state 1.2
 =====================

 !MCSCF STATE 1.2 Energy             -398.459258671511
 Nuclear energy                        14.21494781
 Kinetic energy                       399.04813928
 One electron energy                 -577.55058760
 Two electron energy                  164.87638111
 Virial ratio                           1.99852429

 !MCSCF STATE 1.2 Dipole moment         0.00000000     0.07587058     0.37578693
 Dipole moment /Debye                   0.00000000     0.19283114     0.95509254

 Results for state 2.2
 =====================

 !MCSCF STATE 2.2 Energy             -398.103909340973
 Nuclear energy                        14.21494781
 Kinetic energy                       400.81125145
 One electron energy                 -579.47001033
 Two electron energy                  167.15115318
 Virial ratio                           1.99324534

 !MCSCF STATE 2.2 Dipole moment         0.00000000     0.06828264    -0.19642699
 Dipole moment /Debye                   0.00000000     0.17354579    -0.49923490

 State-averaged charge density matrix saved on record  2140.2 (density set 1)

 !MCSCF expec         <1.2|DMY|1.2>     0.075870578521 au =     0.192831144958 Debye
 !MCSCF trans         <2.2|DMY|1.2>     0.333799100476 au =     0.848377117788 Debye
 !MCSCF expec         <2.2|DMY|2.2>     0.068282638629 au =     0.173545788688 Debye

 !MCSCF expec         <1.2|DMZ|1.2>     0.375786926433 au =     0.955092536483 Debye
 !MCSCF trans         <2.2|DMZ|1.2>    -0.108724382515 au =    -0.276331716113 Debye
 !MCSCF expec         <2.2|DMZ|2.2>    -0.196426987976 au =    -0.499234904099 Debye


 Natural orbital dump (state averaged) at molpro section  2140.2    (Orbital set 2)



 **********************************************************************************************************************************
 DATASETS  * FILE   NREC   LENGTH (MB)   RECORD NAMES
              1      21       21.55       500      610      700      900      950      970     1000      129      960     1100   
                                          VAR    BASINP    GEOM    SYMINP    ZMAT    AOBASIS   BASIS     P2S    ABASIS      S 
                                         1400     1410     1200     1210     1080     1600     1650     1300     1700     1380   
                                           T        V       H0       H01     AOSYM     SMH    MOLCAS    ERIS     OPER     JKOP   
                                         5000   
                                        MCGRAD    

              2       5        5.33       700     1000      520     2100     2140   
                                         GEOM     BASIS   MCVARS     RHF     MCSCF   

 PROGRAMS   *        TOTAL     MULTI        HF       INT
 CPU TIMES  *         2.02      1.78      0.05      0.09
 REAL TIME  *         2.40 SEC
 DISK USED  *        34.97 MB      
 **********************************************************************************************************************************


 PROGRAM * ALASKA (Gradient of the energy)     Author: R. Lindh

 MCSCF information from       5000.1
 Orbitals from record         2140.2

 Number of closed-shell orbitals:  5 (  4  1 )
 Number of active orbitals:        7 (  6  1 )
 Number of occupied orbitals:     12 ( 10  2 )

 Number of electrons= 18     Singlet     Space symmetry=2      Wavefunction type: MCSCF           


 MC GRADIENT FOR STATE 2.2

 Atom          dE/dx               dE/dy               dE/dz

   1         0.000000000         0.035459270         0.484770677
   2         0.000000000        -0.248737399        -0.263280273
   3         0.000000000         0.213278129        -0.221490403

 Nuclear force contribution to virial =        -1.538853449


 **********************************************************************************************************************************
 DATASETS  * FILE   NREC   LENGTH (MB)   RECORD NAMES
              1      21       21.55       500      610      700      900      950      970     1000      129      960     1100   
                                          VAR    BASINP    GEOM    SYMINP    ZMAT    AOBASIS   BASIS     P2S    ABASIS      S 
                                         1400     1410     1200     1210     1080     1600     1650     1300     1700     1380   
                                           T        V       H0       H01     AOSYM     SMH    MOLCAS    ERIS     OPER     JKOP   
                                         5000   
                                        MCGRAD    

              2       5        5.33       700     1000      520     2100     2140   
                                         GEOM     BASIS   MCVARS     RHF     MCSCF   

 PROGRAMS   *        TOTAL    FORCES     MULTI        HF       INT
 CPU TIMES  *         2.22      0.20      1.78      0.05      0.09
 REAL TIME  *         2.63 SEC
 DISK USED  *        34.97 MB      
 **********************************************************************************************************************************

 MULTI/aug-cc-pVDZ energy=   -398.103909340973

        MULTI           HF-SCF  
   -398.10390934   -398.67792950
 **********************************************************************************************************************************
 Molpro calculation terminated
 Variable memory released
