
 Primary working directories    : /work/tmp/ahs/molpro_905
 Secondary working directories  : /work/tmp/ahs/molpro_905
 Wavefunction directory         : /home/user/ahs/molpro_egrad/
 Main file repository           : /work/tmp/ahs/molpro_905/

 SHA1      : 10702993644f36e05297f9f7ccce90cffe774945
 NAME      : 2015.1.22
 ARCHNAME  : linux/x86_64
 FC        : /opt/intel/composer_xe_2015.1.133/bin/intel64/ifort
 BLASLIB   : -Wl,-_start-group /opt/intel/mkl/lib/intel64/libmkl_intel_ilp64.a /opt/intel/mkl/lib/intel64/libmkl_intel_thread.a /opt/intel/mkl/lib/intel64/libmkl_core.a -Wl,-_end-group
 id        : gwnuqc

 Nodes     nprocs
 hpc          1

 Using customized tuning parameters: mindgm=1; mindgv=20; mindgc=4; mindgr=1; noblas=0; minvec=7
 default implementation of scratch files=df  

 memory,32,m
 
 basis=avdz
 
 symmetry,x
 geometry={
 S
 H 1 R1
 H 1 R2 2 A1}
 
 R1 = 2.3 bohr
 R2 = 2.3 bohr
 A1 = 92.12 degree
 
 {hf;occ,7,2;wf,18,1,0}
 {multi;closed,4,1;occ,10,2;
   wf,18,2,0;state,2;weight,1,1}
 
 {rs2;noexc;wf,18,2,0;state,1,1}
 forces
 
 {rs2;noexc;wf,18,2,0;state,1,2}
 forces
 

 Variables initialized (889), CPU time= 0.00 sec
 Commands  initialized (702), CPU time= 0.01 sec, 572 directives.
 Default parameters read. Elapsed time= 0.05 sec

 Checking input...
 Passed
1


                                         ***  PROGRAM SYSTEM MOLPRO  ***
                                       Copyright, TTI GmbH Stuttgart, 2015
                                    Version 2015.1 linked Jul  3 2017 13:45:41


 **********************************************************************************************************************************
 LABEL *                                                                                 
  64 bit serial version                                                                  DATE: 19-Mar-18          TIME: 20:11:00  
 **********************************************************************************************************************************

 SHA1:             10702993644f36e05297f9f7ccce90cffe774945
 **********************************************************************************************************************************

 Variable memory set to   32000000 words,  buffer space   230000 words

 SETTING BASIS          =    AVDZ
 ZSYMEL=X  
 
 SETTING R1             =         2.30000000  BOHR                            
 SETTING R2             =         2.30000000  BOHR                            
 SETTING A1             =        92.12000000  DEGREE                          


 Recomputing integrals since basis changed


 Using spherical harmonics

 Library entry S      S aug-cc-pVDZ          selected for orbital group  1
 Library entry S      P aug-cc-pVDZ          selected for orbital group  1
 Library entry S      D aug-cc-pVDZ          selected for orbital group  1
 Library entry H      S aug-cc-pVDZ          selected for orbital group  2
 Library entry H      P aug-cc-pVDZ          selected for orbital group  2


 PROGRAM * SEWARD (Integral evaluation for generally contracted gaussian basis sets)     Author: Roland Lindh, 1990

 Geometry written to block  1 of record 700

 Orientation using atomic masses  
 Molecule type: Asymmetric top
 User-specified symmetry elements: X
 Symmetry elements: X
 Rotational constants:     174.1987743    373.5755810    326.3990902 GHz  (calculated with average atomic masses)

 Point group  Cs  



 ATOMIC COORDINATES

 NR  ATOM    CHARGE       X              Y              Z

   1  S      16.00    0.000000000   -0.000000000   -0.094415927
   2  H       1.00    0.000000000    1.656153756    1.501564881
   3  H       1.00    0.000000000   -1.656153756    1.501564881

 Bond lengths in Bohr (Angstrom)

 1-2  2.300000000  1-3  2.300000000
     ( 1.217107585)     ( 1.217107585)

 Bond angles

  2-1-3   92.12000000

 NUCLEAR CHARGE:                   18
 NUMBER OF PRIMITIVE AOS:          74
 NUMBER OF SYMMETRY AOS:           72
 NUMBER OF CONTRACTIONS:           45   (  33A'  +  12A"  )
 NUMBER OF CORE ORBITALS:           5   (   4A'  +   1A"  )
 NUMBER OF VALENCE ORBITALS:        6   (   5A'  +   1A"  )


 NUCLEAR REPULSION ENERGY   14.21494781


 Eigenvalues of metric

         1 0.617E-03 0.800E-03 0.878E-02 0.126E-01 0.351E-01 0.395E-01 0.439E-01 0.484E-01
         2 0.374E-01 0.988E-01 0.135E+00 0.475E+00 0.516E+00 0.561E+00 0.652E+00 0.720E+00


 Contracted 2-electron integrals neglected if value below      1.0D-11
 AO integral compression algorithm  1   Integral accuracy      1.0D-11

     1.835 MB (compressed) written to integral file ( 64.6%)


 NUMBER OF SORTED TWO-ELECTRON INTEGRALS:     291996.     BUFFER LENGTH:  32768
 NUMBER OF SEGMENTS:   1  SEGMENT LENGTH:     291996      RECORD LENGTH: 524288

 Memory used in sort:       0.85 MW

 SORT1 READ      392947. AND WROTE      257082. INTEGRALS IN      1 RECORDS. CPU TIME:     0.00 SEC, REAL TIME:     0.01 SEC
 SORT2 READ      257082. AND WROTE      291996. INTEGRALS IN      7 RECORDS. CPU TIME:     0.02 SEC, REAL TIME:     0.02 SEC

 FILE SIZES:   FILE 1:    21.0 MBYTE,  FILE 4:     4.2 MBYTE,   TOTAL:     25.2 MBYTE

 OPERATOR DM      FOR CENTER  0  COORDINATES:    0.000000    0.000000    0.000000


 **********************************************************************************************************************************
 DATASETS  * FILE   NREC   LENGTH (MB)   RECORD NAMES
              1      19       20.46       500      610      700      900      950      970     1000      129      960     1100   
                                          VAR    BASINP    GEOM    SYMINP    ZMAT    AOBASIS   BASIS     P2S    ABASIS      S 
                                         1400     1410     1200     1210     1080     1600     1650     1300     1700   
                                           T        V       H0       H01     AOSYM     SMH    MOLCAS    ERIS     OPER   

 PROGRAMS   *        TOTAL       INT
 CPU TIMES  *         0.20      0.10
 REAL TIME  *         0.32 SEC
 DISK USED  *        25.50 MB      
 **********************************************************************************************************************************


 PROGRAM * RHF-SCF (CLOSED SHELL)       Authors: W. Meyer, H.-J. Werner


 NUMBER OF ELECTRONS:       9+    9-    SPACE SYMMETRY=1    SPIN SYMMETRY: Singlet 
 CONVERGENCE THRESHOLDS:    1.00E-06 (Density)    1.00E-07 (Energy)
 MAX. NUMBER OF ITERATIONS:       60
 INTERPOLATION TYPE:            DIIS
 INTERPOLATION STEPS:              2 (START)      1 (STEP)
 LEVEL SHIFTS:                  0.00 (CLOSED)  0.00 (OPEN) 

 Number of closed-shell orbitals:    9 (   7   2 )


 Orbital guess generated from atomic densities. Full valence occupancy:    9   2

 Molecular orbital dump at record        2100.2

 ITERATION    DDIFF          GRAD             ENERGY        2-EL.EN.            DIPOLE MOMENTS         DIIS   ORB.
    1      0.000D+00      0.000D+00      -398.65985486    332.993723    0.00000    0.00000    0.77681    0    start
    2      0.000D+00      0.692D-02      -398.67606009    331.956621    0.00000    0.00000    0.33961    1    diag
    3      0.192D-01      0.211D-02      -398.67763264    332.307545    0.00000    0.00000    0.45018    2    diag
    4      0.373D-02      0.671D-03      -398.67791787    332.218917    0.00000   -0.00000    0.44709    3    diag
    5      0.186D-02      0.131D-03      -398.67792921    332.230309    0.00000    0.00000    0.44880    4    diag
    6      0.306D-03      0.216D-04      -398.67792948    332.225443    0.00000    0.00000    0.44916    5    diag
    7      0.540D-04      0.572D-05      -398.67792950    332.225924    0.00000   -0.00000    0.44912    6    diag
    8      0.226D-04      0.109D-05      -398.67792950    332.225910    0.00000   -0.00000    0.44908    7    diag
    9      0.418D-05      0.120D-06      -398.67792950    332.225919    0.00000   -0.00000    0.44908    8    diag
   10      0.393D-06      0.186D-07      -398.67792950    332.225918    0.00000   -0.00000    0.44908    0    orth

 Final occupancy:   7   2

 !RHF STATE 1.1 Energy               -398.677929502489
 Nuclear energy                        14.21494781
 One-electron energy                 -579.00583610
 Two-electron energy                  166.11295878
 Virial quotient                       -0.99908851
 !RHF STATE 1.1 Dipole moment           0.00000000    -0.00000000     0.44908293
 Dipole moment /Debye                   0.00000000    -0.00000000     1.14138019

 Orbital energies:

         1.1          2.1          3.1          4.1          5.1          6.1          7.1          8.1          9.1
    -91.952362    -8.962577    -6.645003    -6.643821    -1.022610    -0.625793    -0.510501     0.035470     0.061757

         1.2          2.2          3.2          4.2
     -6.640515    -0.386777     0.124059     0.319661

 HOMO      2.2    -0.386777 =     -10.5247eV
 LUMO      8.1     0.035470 =       0.9652eV
 LUMO-HOMO         0.422247 =      11.4899eV


 **********************************************************************************************************************************
 DATASETS  * FILE   NREC   LENGTH (MB)   RECORD NAMES
              1      19       20.46       500      610      700      900      950      970     1000      129      960     1100   
                                          VAR    BASINP    GEOM    SYMINP    ZMAT    AOBASIS   BASIS     P2S    ABASIS      S 
                                         1400     1410     1200     1210     1080     1600     1650     1300     1700   
                                           T        V       H0       H01     AOSYM     SMH    MOLCAS    ERIS     OPER   

              2       4        2.79       700     1000      520     2100   
                                         GEOM     BASIS   MCVARS     RHF  

 PROGRAMS   *        TOTAL        HF       INT
 CPU TIMES  *         0.24      0.04      0.10
 REAL TIME  *         0.37 SEC
 DISK USED  *        25.50 MB      
 **********************************************************************************************************************************


 PROGRAM * MULTI (Direct Multiconfiguration SCF)       Authors: P.J. Knowles, H.-J. Werner (1984)     S.T. Elbert (1988)


 Number of closed-shell orbitals:   5 (   4   1 )
 Number of active  orbitals:        7 (   6   1 )
 Number of external orbitals:      33 (  23  10 )

 State symmetry 1

 Number of electrons:     8    Spin symmetry=Singlet   Space symmetry=2
 Number of states:        2
 Number of CSFs:        210   (600 determinants, 1225 intermediate states)

 Molecular orbitals read from record     2100.2  Type=RHF/CANONICAL (state 1.1)

 Wavefunction dump at record             2140.2

 Convergence thresholds  0.10E-01 (gradient)  0.10E-05 (energy)  0.10E-02 (step length)

 Weight factors for state symmetry  1:    0.50000   0.50000

 Number of orbital rotations:      275   (    25 Core/Active    102 Core/Virtual   0 Active/Active    148 Active/Virtual)
 Total number of variables:       1475


 ITER. MIC  NCI  NEG     ENERGY(VAR)     ENERGY(PROJ)   ENERGY CHANGE     GRAD(0)  GRAD(ORB)   GRAD(CI)     STEP       TIME

   1  140   21    0    -398.38931267    -398.46917911   -0.07986644    0.27789252 0.00168513 0.00198291  0.13D+01      0.09
   2   37   25    0    -398.45391568    -398.46153230   -0.00761662    0.11713387 0.00000284 0.00002297  0.41D+00      0.16
   3   37   21    0    -398.46169516    -398.46170699   -0.00001183    0.00325880 0.00000064 0.00000556  0.19D-01      0.23
   4   38    9    0    -398.46170700    -398.46170700   -0.00000000    0.00000533 0.00000022 0.00000222  0.28D-04      0.27

 ** WVFN ****  CONVERGENCE REACHED, FINAL GRADIENT:  0.10D-06



 Results for state 1.2
 =====================

 !MCSCF STATE 1.2 Energy             -398.476438352369
 Nuclear energy                        14.21494781
 Kinetic energy                       398.69383845
 One electron energy                 -575.36249727
 Two electron energy                  162.67111110
 Virial ratio                           1.99945472

 !MCSCF STATE 1.2 Dipole moment         0.00000000     0.00000009    -1.31008387
 Dipole moment /Debye                   0.00000000     0.00000023    -3.32968297

 Results for state 2.2
 =====================

 !MCSCF STATE 2.2 Energy             -398.446975643578
 Nuclear energy                        14.21494781
 Kinetic energy                       399.20638414
 One electron energy                 -577.87905898
 Two electron energy                  165.21713552
 Virial ratio                           1.99809770

 !MCSCF STATE 2.2 Dipole moment         0.00000000     0.00000010     0.49261756
 Dipole moment /Debye                   0.00000000     0.00000024     1.25202693

 State-averaged charge density matrix saved on record  2140.2 (density set 1)

 !MCSCF expec         <1.2|DMY|1.2>     0.000000090231 au =     0.000000229330 Debye
 !MCSCF trans         <2.2|DMY|1.2>    -0.314736361796 au =    -0.799927642414 Debye
 !MCSCF expec         <2.2|DMY|2.2>     0.000000095997 au =     0.000000243985 Debye

 !MCSCF expec         <1.2|DMZ|1.2>    -1.310083871590 au =    -3.329682966355 Debye
 !MCSCF trans         <2.2|DMZ|1.2>     0.000000162656 au =     0.000000413403 Debye
 !MCSCF expec         <2.2|DMZ|2.2>     0.492617556860 au =     1.252026930164 Debye


 Natural orbital dump (state averaged) at molpro section  2140.2    (Orbital set 2)



 **********************************************************************************************************************************
 DATASETS  * FILE   NREC   LENGTH (MB)   RECORD NAMES
              1      20       21.54       500      610      700      900      950      970     1000      129      960     1100   
                                          VAR    BASINP    GEOM    SYMINP    ZMAT    AOBASIS   BASIS     P2S    ABASIS      S 
                                         1400     1410     1200     1210     1080     1600     1650     1300     1700     1380   
                                           T        V       H0       H01     AOSYM     SMH    MOLCAS    ERIS     OPER     JKOP   

              2       5        5.33       700     1000      520     2100     2140   
                                         GEOM     BASIS   MCVARS     RHF     MCSCF   

 PROGRAMS   *        TOTAL     MULTI        HF       INT
 CPU TIMES  *         0.54      0.30      0.04      0.10
 REAL TIME  *         0.73 SEC
 DISK USED  *        34.97 MB      
 **********************************************************************************************************************************


 PROGRAM * RS2 (Multireference RS Perturbation Theory)     Authors: H.-J. Werner (1993), P. Celani (1998)


 Convergence thresholds:  THRVAR = 1.00D-10  THRDEN = 1.00D-08

 Number of optimized states:  1  Roots:   1
 Number of reference states:  1  Roots:   1

 Reference symmetry:                   2   Singlet 
 Number of electrons:                 18
 Maximum number of shells:             5
 Maximum number of spin couplings:    14

 Reference space:      126 conf      210 CSFs
 N elec internal:      126 conf      210 CSFs
 N-1 el internal:      267 conf      574 CSFs
 N-2 el internal:      267 conf      868 CSFs

 Number of electrons in valence space:                      8
 Maximum number of open shell orbitals in reference space:  6
 Maximum number of open shell orbitals in internal spaces:  8


 Number of core orbitals:           5 (   4   1 )
 Number of active  orbitals:        7 (   6   1 )
 Number of external orbitals:      33 (  23  10 )

 Molecular orbitals read from record     2140.2  Type=MCSCF/NATURAL (state averaged)

 Coulomb and exchange operators available. No transformation done.

 Number of p-space configurations:   3

 Reference wavefunction optimized for reference space (refopt=1)

 State     Reference Energy 
   1        -398.47643835

 Number of internal configurations:                  210
 Number of singly external configurations:             0
 Number of doubly external configurations:             0
 Total number of contracted configurations:          210
 Total number of uncontracted configurations:        210

 Weight factors for SA-density in H0:    1.000000

 FIMAX=  0.26D+00  FXMAX=  0.15D-01  DIAG=  F  F  NOREF=1  NOINT=2  IHPPD=2

 Nuclear energy:                      14.21494781
 Core energy:                       -396.24346116
 Zeroth-order valence energy:         -5.63236419
 Zeroth-order total energy:         -387.66087753
 First-order energy:                 -10.81556082


 =====================================
 Analysis of CPU times by interactions
 =====================================

       I      S      P

 I   0.0%
 S   0.0%   0.0%
 P   0.0%   0.0%   0.0%

 Initialization:   0.0%
 Other:          100.0%

 Total CPU:        0.0 seconds
 =====================================



 Reference coefficients greater than 0.0500000
 =============================================
 2220/0\           0.9902332
 22/0\/\          -0.0829829



 RESULTS FOR STATE 1.2
 =====================

 Coefficient of reference function:   C(0) = 1.00000000 (fixed)   1.00000000 (relaxed)

 Energy contributions of configuration classes

 CLASS          SQ.NORM        ECORR1        ECORR2
 +++++++++++++++++++++++++++++++++++++++++++++++++++
 Internals    0.00000000    0.00000000    0.00000000
 Singles      0.00000000    0.00000000    0.00000000
 Pairs        0.00000000    0.00000000    0.00000000
 Total        1.00000000    0.00000000    0.00000000
 +++++++++++++++++++++++++++++++++++++++++++++++++++


 Reference energy                    -398.47643835
 Nuclear energy                        14.21494781
 Kinetic energy                       398.69383890
 One electron energy                 -575.36249818
 Two electron energy                  162.67111202
 Virial quotient                       -0.99945472
 Correlation energy                    -0.00000000
 !RSPT2 STATE 1.2 Energy             -398.476438352366

 Properties without orbital relaxation:

 !RSPT2 STATE 1.2 Dipole moment         0.00000000     0.00000009    -1.31008277
 Dipole moment /Debye                   0.00000000     0.00000023    -3.32968018

 Hylleraas correlation energy:          0.00000000
 Total energy:                       -398.47643835

 Solving MCSCF z-vector equations for state  1.2, requested accuracy=      0.10D-05
 Convergence reached in  21 iterations ( 21 expansion vectors), accuracy=  0.64D-06

 Properties including orbital relaxation:

 Reference dipole moments:              0.00000000     0.00000009    -1.31008277
 !RSPT2 dipole moments (ED):            0.00000000    -0.00000006    -1.27741525

 RSPT2 Gradient info saved on record         5200.1

 CPU-time for rhs:            0.01 sec
 CPU-time for cpmcscf:        0.09 sec
 CPU-time for densities:      0.00 sec


 **********************************************************************************************************************************
 DATASETS  * FILE   NREC   LENGTH (MB)   RECORD NAMES
              1      23       21.90       500      610      700      900      950      970     1000      129      960     1100   
                                          VAR    BASINP    GEOM    SYMINP    ZMAT    AOBASIS   BASIS     P2S    ABASIS      S 
                                         1400     1410     1200     1210     1080     1600     1650     1300     1700     1380   
                                           T        V       H0       H01     AOSYM     SMH    MOLCAS    ERIS     OPER     JKOP   
                                         5200     5210     7005   
                                        RS2GRAD  RS2GRAD    

              2       5        5.33       700     1000      520     2100     2140   
                                         GEOM     BASIS   MCVARS     RHF     MCSCF   

 PROGRAMS   *        TOTAL       RS2     MULTI        HF       INT
 CPU TIMES  *         0.69      0.15      0.30      0.04      0.10
 REAL TIME  *         0.91 SEC
 DISK USED  *        36.33 MB      
 **********************************************************************************************************************************


 PROGRAM * ALASKA (Gradient of the energy)     Author: R. Lindh


 RSPT2 Gradient info restored from record    5200.1

 Number of core orbitals:           5 (   4   1 )
 Number of active  orbitals:        7 (   6   1 )
 Number of external orbitals:      33 (  23  10 )

 Integral thresholds in T2TRAN:            1.0D-10 (PROD)

 Available memory for Transformation:  29865767 words
 Memory needed for incore algorithm:      89289 words
 Minimum memory needed:                   62724 words

 Memory used for transformation:           0.09 MW
 Available memory for gradients:          31.78 MW

 CPU for transformation:                   0.01 sec
 CPU for integrals and gradient:           0.14 sec
 Total CPU:                                0.15 sec

 Prescreening statistics:
 ========================

 Total number of shell quadruplets:        4.06D+02
 Number of shell quadruplets processed:    4.06D+02 (100.00%)

 RSPT2 GRADIENT FOR STATE 1.2

 Atom          dE/dx               dE/dy               dE/dz

   1         0.000000000         0.000000002         0.162428668
   2         0.000000000        -0.088345064        -0.081214335
   3         0.000000000         0.088345062        -0.081214333

 Nuclear force contribution to virial =        -0.551859054


 **********************************************************************************************************************************
 DATASETS  * FILE   NREC   LENGTH (MB)   RECORD NAMES
              1      23       21.90       500      610      700      900      950      970     1000      129      960     1100   
                                          VAR    BASINP    GEOM    SYMINP    ZMAT    AOBASIS   BASIS     P2S    ABASIS      S 
                                         1400     1410     1200     1210     1080     1600     1650     1300     1700     1380   
                                           T        V       H0       H01     AOSYM     SMH    MOLCAS    ERIS     OPER     JKOP   
                                         5200     5210     7005   
                                        RS2GRAD  RS2GRAD    

              2       5        5.33       700     1000      520     2100     2140   
                                         GEOM     BASIS   MCVARS     RHF     MCSCF   

 PROGRAMS   *        TOTAL    FORCES       RS2     MULTI        HF       INT
 CPU TIMES  *         0.90      0.21      0.15      0.30      0.04      0.10
 REAL TIME  *         1.14 SEC
 DISK USED  *        36.33 MB      
 **********************************************************************************************************************************


 PROGRAM * RS2 (Multireference RS Perturbation Theory)     Authors: H.-J. Werner (1993), P. Celani (1998)


 Convergence thresholds:  THRVAR = 1.00D-10  THRDEN = 1.00D-08

 Number of optimized states:  1  Roots:   2
 Number of reference states:  1  Roots:   2

 Reference symmetry:                   2   Singlet 
 Number of electrons:                 18
 Maximum number of shells:             5
 Maximum number of spin couplings:    14

 Reference space:      126 conf      210 CSFs
 N elec internal:      126 conf      210 CSFs
 N-1 el internal:      267 conf      574 CSFs
 N-2 el internal:      267 conf      868 CSFs

 Number of electrons in valence space:                      8
 Maximum number of open shell orbitals in reference space:  6
 Maximum number of open shell orbitals in internal spaces:  8


 Number of core orbitals:           5 (   4   1 )
 Number of active  orbitals:        7 (   6   1 )
 Number of external orbitals:      33 (  23  10 )

 Molecular orbitals read from record     2140.2  Type=MCSCF/NATURAL (state averaged)

 Coulomb and exchange operators available. No transformation done.

 Number of p-space configurations:   3

 Reference wavefunction optimized for reference space (refopt=1)

 State     Reference Energy 
   2        -398.44697564
   1        -398.47643835

 Number of internal configurations:                  210
 Number of singly external configurations:             0
 Number of doubly external configurations:             0
 Total number of contracted configurations:          210
 Total number of uncontracted configurations:        210

 Weight factors for SA-density in H0:    1.000000

 FIMAX=  0.25D+00  FXMAX=  0.15D-01  DIAG=  F  F  NOREF=1  NOINT=2  IHPPD=2

 Nuclear energy:                      14.21494781
 Core energy:                       -396.24346116
 Zeroth-order valence energy:         -4.69175552
 Zeroth-order total energy:         -386.72026887
 First-order energy:                 -11.72670678


 =====================================
 Analysis of CPU times by interactions
 =====================================

       I      S      P

 I   0.0%
 S   0.0%   0.0%
 P   0.0%   0.0%   0.0%

 Initialization:   0.0%
 Other:          100.0%

 Total CPU:        0.0 seconds
 =====================================



 Reference coefficients greater than 0.0500000
 =============================================
 222/00\           0.9912791
 22/\0/\          -0.0919813
 22//0\\           0.0666165



 RESULTS FOR STATE 2.2
 =====================

 Coefficient of reference function:   C(0) = 1.00000000 (fixed)   1.00000000 (relaxed)

 Energy contributions of configuration classes

 CLASS          SQ.NORM        ECORR1        ECORR2
 +++++++++++++++++++++++++++++++++++++++++++++++++++
 Internals   -0.00000000    0.00000000    0.00000000
 Singles      0.00000000    0.00000000    0.00000000
 Pairs        0.00000000    0.00000000    0.00000000
 Total        1.00000000    0.00000000    0.00000000
 +++++++++++++++++++++++++++++++++++++++++++++++++++


 Reference energy                    -398.44697564
 Nuclear energy                        14.21494781
 Kinetic energy                       399.20638390
 One electron energy                 -577.87905949
 Two electron energy                  165.21713603
 Virial quotient                       -0.99809771
 Correlation energy                     0.00000000
 !RSPT2 STATE 2.2 Energy             -398.446975643575

 Properties without orbital relaxation:

 !RSPT2 STATE 2.2 Dipole moment         0.00000000     0.00000010     0.49262001
 Dipole moment /Debye                   0.00000000     0.00000024     1.25203316

 Hylleraas correlation energy:          0.00000000
 Total energy:                       -398.44697564

 Solving MCSCF z-vector equations for state  2.2, requested accuracy=      0.10D-05
 Convergence reached in  21 iterations ( 21 expansion vectors), accuracy=  0.64D-06

 Properties including orbital relaxation:

 Reference dipole moments:              0.00000000     0.00000010     0.49262001
 !RSPT2 dipole moments (ED):            0.00000000     0.00000006     0.45994834

 RSPT2 Gradient info saved on record         5201.1

 CPU-time for rhs:            0.01 sec
 CPU-time for cpmcscf:        0.10 sec
 CPU-time for densities:      0.00 sec


 **********************************************************************************************************************************
 DATASETS  * FILE   NREC   LENGTH (MB)   RECORD NAMES
              1      25       22.23       500      610      700      900      950      970     1000      129      960     1100   
                                          VAR    BASINP    GEOM    SYMINP    ZMAT    AOBASIS   BASIS     P2S    ABASIS      S 
                                         1400     1410     1200     1210     1080     1600     1650     1300     1700     1380   
                                           T        V       H0       H01     AOSYM     SMH    MOLCAS    ERIS     OPER     JKOP   
                                         5200     5210     7005     5201     5211   
                                        RS2GRAD  RS2GRAD           RS2GRAD  RS2GRAD    

              2       5        5.33       700     1000      520     2100     2140   
                                         GEOM     BASIS   MCVARS     RHF     MCSCF   

 PROGRAMS   *        TOTAL       RS2    FORCES       RS2     MULTI        HF       INT
 CPU TIMES  *         1.05      0.15      0.21      0.15      0.30      0.04      0.10
 REAL TIME  *         1.31 SEC
 DISK USED  *        36.69 MB      
 **********************************************************************************************************************************


 PROGRAM * ALASKA (Gradient of the energy)     Author: R. Lindh


 RSPT2 Gradient info restored from record    5201.1

 Number of core orbitals:           5 (   4   1 )
 Number of active  orbitals:        7 (   6   1 )
 Number of external orbitals:      33 (  23  10 )

 Integral thresholds in T2TRAN:            1.0D-10 (PROD)

 Available memory for Transformation:  29865767 words
 Memory needed for incore algorithm:      89289 words
 Minimum memory needed:                   62724 words

 Memory used for transformation:           0.09 MW
 Available memory for gradients:          31.78 MW

 CPU for transformation:                   0.00 sec
 CPU for integrals and gradient:           0.16 sec
 Total CPU:                                0.16 sec

 Prescreening statistics:
 ========================

 Total number of shell quadruplets:        4.06D+02
 Number of shell quadruplets processed:    4.06D+02 (100.00%)

 RSPT2 GRADIENT FOR STATE 2.2

 Atom          dE/dx               dE/dy               dE/dz

   1         0.000000000        -0.000000002         0.229018184
   2         0.000000000        -0.092052322        -0.114509091
   3         0.000000000         0.092052324        -0.114509093

 Nuclear force contribution to virial =        -0.670414227


 **********************************************************************************************************************************
 DATASETS  * FILE   NREC   LENGTH (MB)   RECORD NAMES
              1      25       22.23       500      610      700      900      950      970     1000      129      960     1100   
                                          VAR    BASINP    GEOM    SYMINP    ZMAT    AOBASIS   BASIS     P2S    ABASIS      S 
                                         1400     1410     1200     1210     1080     1600     1650     1300     1700     1380   
                                           T        V       H0       H01     AOSYM     SMH    MOLCAS    ERIS     OPER     JKOP   
                                         5200     5210     7005     5201     5211   
                                        RS2GRAD  RS2GRAD           RS2GRAD  RS2GRAD    

              2       5        5.33       700     1000      520     2100     2140   
                                         GEOM     BASIS   MCVARS     RHF     MCSCF   

 PROGRAMS   *        TOTAL    FORCES       RS2    FORCES       RS2     MULTI        HF       INT
 CPU TIMES  *         1.26      0.21      0.15      0.21      0.15      0.30      0.04      0.10
 REAL TIME  *         1.53 SEC
 DISK USED  *        36.69 MB      
 **********************************************************************************************************************************

 RS2/aug-cc-pVDZ energy=   -398.446975643575

        RS2             RS2             MULTI           HF-SCF  
   -398.44697564   -398.47643835   -398.44697564   -398.67792950
 **********************************************************************************************************************************
 Molpro calculation terminated
 Variable memory released
