
 Primary working directories    : /work/tmp/ahs/molpro_4352
 Secondary working directories  : /work/tmp/ahs/molpro_4352
 Wavefunction directory         : /home/user/ahs/molpro_egrad/
 Main file repository           : /work/tmp/ahs/molpro_4352/

 SHA1      : 10702993644f36e05297f9f7ccce90cffe774945
 NAME      : 2015.1.22
 ARCHNAME  : linux/x86_64
 FC        : /opt/intel/composer_xe_2015.1.133/bin/intel64/ifort
 BLASLIB   : -Wl,-_start-group /opt/intel/mkl/lib/intel64/libmkl_intel_ilp64.a /opt/intel/mkl/lib/intel64/libmkl_intel_thread.a /opt/intel/mkl/lib/intel64/libmkl_core.a -Wl,-_end-group
 id        : gwnuqc

 Nodes     nprocs
 hpc          1

 Using customized tuning parameters: mindgm=1; mindgv=20; mindgc=4; mindgr=1; noblas=0; minvec=7
 default implementation of scratch files=df  

 memory,32,m
 
 basis=avdz
 
 symmetry,x
 geometry={
 S
 H 1 R1
 H 1 R2 2 A1}
 
 R1 = 2.3 bohr
 R2 = 2.3 bohr
 A1 = 92.12 degree
 
 {hf;occ,7,2;wf,18,1,0}
 {multi;closed,4,1;occ,10,2;
   wf,18,2,0;state,2;weight,1,1}
 
 {rs2,MIX=2,ROOT=1,nocheck;
   wf,18,2,0;state,2}
 forces
 
 {rs2,MIX=2,ROOT=2,nocheck;
   wf,18,2,0;state,2}
 forces
 

 Variables initialized (889), CPU time= 0.01 sec
 Commands  initialized (702), CPU time= 0.01 sec, 572 directives.
 Default parameters read. Elapsed time= 0.04 sec

 Checking input...
 Passed
1


                                         ***  PROGRAM SYSTEM MOLPRO  ***
                                       Copyright, TTI GmbH Stuttgart, 2015
                                    Version 2015.1 linked Jul  3 2017 13:45:41


 **********************************************************************************************************************************
 LABEL *                                                                                 
  64 bit serial version                                                                  DATE: 20-Mar-18          TIME: 13:03:54  
 **********************************************************************************************************************************

 SHA1:             10702993644f36e05297f9f7ccce90cffe774945
 **********************************************************************************************************************************

 Variable memory set to   32000000 words,  buffer space   230000 words

 SETTING BASIS          =    AVDZ
 ZSYMEL=X  
 
 SETTING R1             =         2.30000000  BOHR                            
 SETTING R2             =         2.30000000  BOHR                            
 SETTING A1             =        92.12000000  DEGREE                          


 Recomputing integrals since basis changed


 Using spherical harmonics

 Library entry S      S aug-cc-pVDZ          selected for orbital group  1
 Library entry S      P aug-cc-pVDZ          selected for orbital group  1
 Library entry S      D aug-cc-pVDZ          selected for orbital group  1
 Library entry H      S aug-cc-pVDZ          selected for orbital group  2
 Library entry H      P aug-cc-pVDZ          selected for orbital group  2


 PROGRAM * SEWARD (Integral evaluation for generally contracted gaussian basis sets)     Author: Roland Lindh, 1990

 Geometry written to block  1 of record 700

 Orientation using atomic masses  
 Molecule type: Asymmetric top
 User-specified symmetry elements: X
 Symmetry elements: X
 Rotational constants:     174.1987743    373.5755810    326.3990902 GHz  (calculated with average atomic masses)

 Point group  Cs  



 ATOMIC COORDINATES

 NR  ATOM    CHARGE       X              Y              Z

   1  S      16.00    0.000000000   -0.000000000   -0.094415927
   2  H       1.00    0.000000000    1.656153756    1.501564881
   3  H       1.00    0.000000000   -1.656153756    1.501564881

 Bond lengths in Bohr (Angstrom)

 1-2  2.300000000  1-3  2.300000000
     ( 1.217107585)     ( 1.217107585)

 Bond angles

  2-1-3   92.12000000

 NUCLEAR CHARGE:                   18
 NUMBER OF PRIMITIVE AOS:          74
 NUMBER OF SYMMETRY AOS:           72
 NUMBER OF CONTRACTIONS:           45   (  33A'  +  12A"  )
 NUMBER OF CORE ORBITALS:           5   (   4A'  +   1A"  )
 NUMBER OF VALENCE ORBITALS:        6   (   5A'  +   1A"  )


 NUCLEAR REPULSION ENERGY   14.21494781


 Eigenvalues of metric

         1 0.617E-03 0.800E-03 0.878E-02 0.126E-01 0.351E-01 0.395E-01 0.439E-01 0.484E-01
         2 0.374E-01 0.988E-01 0.135E+00 0.475E+00 0.516E+00 0.561E+00 0.652E+00 0.720E+00


 Contracted 2-electron integrals neglected if value below      1.0D-11
 AO integral compression algorithm  1   Integral accuracy      1.0D-11

     1.835 MB (compressed) written to integral file ( 64.6%)


 NUMBER OF SORTED TWO-ELECTRON INTEGRALS:     291996.     BUFFER LENGTH:  32768
 NUMBER OF SEGMENTS:   1  SEGMENT LENGTH:     291996      RECORD LENGTH: 524288

 Memory used in sort:       0.85 MW

 SORT1 READ      392947. AND WROTE      257082. INTEGRALS IN      1 RECORDS. CPU TIME:     0.00 SEC, REAL TIME:     0.01 SEC
 SORT2 READ      257082. AND WROTE      291996. INTEGRALS IN      7 RECORDS. CPU TIME:     0.02 SEC, REAL TIME:     0.02 SEC

 FILE SIZES:   FILE 1:    21.0 MBYTE,  FILE 4:     4.2 MBYTE,   TOTAL:     25.2 MBYTE

 OPERATOR DM      FOR CENTER  0  COORDINATES:    0.000000    0.000000    0.000000


 **********************************************************************************************************************************
 DATASETS  * FILE   NREC   LENGTH (MB)   RECORD NAMES
              1      19       20.46       500      610      700      900      950      970     1000      129      960     1100   
                                          VAR    BASINP    GEOM    SYMINP    ZMAT    AOBASIS   BASIS     P2S    ABASIS      S 
                                         1400     1410     1200     1210     1080     1600     1650     1300     1700   
                                           T        V       H0       H01     AOSYM     SMH    MOLCAS    ERIS     OPER   

 PROGRAMS   *        TOTAL       INT
 CPU TIMES  *         0.22      0.11
 REAL TIME  *         0.32 SEC
 DISK USED  *        25.50 MB      
 **********************************************************************************************************************************


 PROGRAM * RHF-SCF (CLOSED SHELL)       Authors: W. Meyer, H.-J. Werner


 NUMBER OF ELECTRONS:       9+    9-    SPACE SYMMETRY=1    SPIN SYMMETRY: Singlet 
 CONVERGENCE THRESHOLDS:    1.00E-06 (Density)    1.00E-07 (Energy)
 MAX. NUMBER OF ITERATIONS:       60
 INTERPOLATION TYPE:            DIIS
 INTERPOLATION STEPS:              2 (START)      1 (STEP)
 LEVEL SHIFTS:                  0.00 (CLOSED)  0.00 (OPEN) 

 Number of closed-shell orbitals:    9 (   7   2 )


 Orbital guess generated from atomic densities. Full valence occupancy:    9   2

 Molecular orbital dump at record        2100.2

 ITERATION    DDIFF          GRAD             ENERGY        2-EL.EN.            DIPOLE MOMENTS         DIIS   ORB.
    1      0.000D+00      0.000D+00      -398.65985486    332.993723    0.00000    0.00000    0.77681    0    start
    2      0.000D+00      0.692D-02      -398.67606009    331.956621    0.00000    0.00000    0.33961    1    diag
    3      0.192D-01      0.211D-02      -398.67763264    332.307545    0.00000    0.00000    0.45018    2    diag
    4      0.373D-02      0.671D-03      -398.67791787    332.218917    0.00000   -0.00000    0.44709    3    diag
    5      0.186D-02      0.131D-03      -398.67792921    332.230309    0.00000    0.00000    0.44880    4    diag
    6      0.306D-03      0.216D-04      -398.67792948    332.225443    0.00000    0.00000    0.44916    5    diag
    7      0.540D-04      0.572D-05      -398.67792950    332.225924    0.00000   -0.00000    0.44912    6    diag
    8      0.226D-04      0.109D-05      -398.67792950    332.225910    0.00000   -0.00000    0.44908    7    diag
    9      0.418D-05      0.120D-06      -398.67792950    332.225919    0.00000   -0.00000    0.44908    8    diag
   10      0.393D-06      0.186D-07      -398.67792950    332.225918    0.00000   -0.00000    0.44908    0    orth

 Final occupancy:   7   2

 !RHF STATE 1.1 Energy               -398.677929502489
 Nuclear energy                        14.21494781
 One-electron energy                 -579.00583610
 Two-electron energy                  166.11295878
 Virial quotient                       -0.99908851
 !RHF STATE 1.1 Dipole moment           0.00000000    -0.00000000     0.44908293
 Dipole moment /Debye                   0.00000000    -0.00000000     1.14138019

 Orbital energies:

         1.1          2.1          3.1          4.1          5.1          6.1          7.1          8.1          9.1
    -91.952362    -8.962577    -6.645003    -6.643821    -1.022610    -0.625793    -0.510501     0.035470     0.061757

         1.2          2.2          3.2          4.2
     -6.640515    -0.386777     0.124059     0.319661

 HOMO      2.2    -0.386777 =     -10.5247eV
 LUMO      8.1     0.035470 =       0.9652eV
 LUMO-HOMO         0.422247 =      11.4899eV


 **********************************************************************************************************************************
 DATASETS  * FILE   NREC   LENGTH (MB)   RECORD NAMES
              1      19       20.46       500      610      700      900      950      970     1000      129      960     1100   
                                          VAR    BASINP    GEOM    SYMINP    ZMAT    AOBASIS   BASIS     P2S    ABASIS      S 
                                         1400     1410     1200     1210     1080     1600     1650     1300     1700   
                                           T        V       H0       H01     AOSYM     SMH    MOLCAS    ERIS     OPER   

              2       4        2.79       700     1000      520     2100   
                                         GEOM     BASIS   MCVARS     RHF  

 PROGRAMS   *        TOTAL        HF       INT
 CPU TIMES  *         0.26      0.04      0.11
 REAL TIME  *         0.37 SEC
 DISK USED  *        25.50 MB      
 **********************************************************************************************************************************


 PROGRAM * MULTI (Direct Multiconfiguration SCF)       Authors: P.J. Knowles, H.-J. Werner (1984)     S.T. Elbert (1988)


 Number of closed-shell orbitals:   5 (   4   1 )
 Number of active  orbitals:        7 (   6   1 )
 Number of external orbitals:      33 (  23  10 )

 State symmetry 1

 Number of electrons:     8    Spin symmetry=Singlet   Space symmetry=2
 Number of states:        2
 Number of CSFs:        210   (600 determinants, 1225 intermediate states)

 Molecular orbitals read from record     2100.2  Type=RHF/CANONICAL (state 1.1)

 Wavefunction dump at record             2140.2

 Convergence thresholds  0.10E-01 (gradient)  0.10E-05 (energy)  0.10E-02 (step length)

 Weight factors for state symmetry  1:    0.50000   0.50000

 Number of orbital rotations:      275   (    25 Core/Active    102 Core/Virtual   0 Active/Active    148 Active/Virtual)
 Total number of variables:       1475


 ITER. MIC  NCI  NEG     ENERGY(VAR)     ENERGY(PROJ)   ENERGY CHANGE     GRAD(0)  GRAD(ORB)   GRAD(CI)     STEP       TIME

   1  140   21    0    -398.38931267    -398.46917911   -0.07986644    0.27789252 0.00168513 0.00198291  0.13D+01      0.07
   2   37   25    0    -398.45391568    -398.46153230   -0.00761662    0.11713387 0.00000284 0.00002297  0.41D+00      0.14
   3   37   21    0    -398.46169516    -398.46170699   -0.00001183    0.00325880 0.00000064 0.00000556  0.19D-01      0.20
   4   38    9    0    -398.46170700    -398.46170700   -0.00000000    0.00000533 0.00000022 0.00000222  0.28D-04      0.23

 ** WVFN ****  CONVERGENCE REACHED, FINAL GRADIENT:  0.10D-06



 Results for state 1.2
 =====================

 !MCSCF STATE 1.2 Energy             -398.476438352369
 Nuclear energy                        14.21494781
 Kinetic energy                       398.69383845
 One electron energy                 -575.36249727
 Two electron energy                  162.67111110
 Virial ratio                           1.99945472

 !MCSCF STATE 1.2 Dipole moment         0.00000000     0.00000009    -1.31008387
 Dipole moment /Debye                   0.00000000     0.00000023    -3.32968297

 Results for state 2.2
 =====================

 !MCSCF STATE 2.2 Energy             -398.446975643578
 Nuclear energy                        14.21494781
 Kinetic energy                       399.20638414
 One electron energy                 -577.87905898
 Two electron energy                  165.21713552
 Virial ratio                           1.99809770

 !MCSCF STATE 2.2 Dipole moment         0.00000000     0.00000010     0.49261756
 Dipole moment /Debye                   0.00000000     0.00000024     1.25202693

 State-averaged charge density matrix saved on record  2140.2 (density set 1)

 !MCSCF expec         <1.2|DMY|1.2>     0.000000090231 au =     0.000000229330 Debye
 !MCSCF trans         <2.2|DMY|1.2>    -0.314736361796 au =    -0.799927642414 Debye
 !MCSCF expec         <2.2|DMY|2.2>     0.000000095997 au =     0.000000243985 Debye

 !MCSCF expec         <1.2|DMZ|1.2>    -1.310083871590 au =    -3.329682966355 Debye
 !MCSCF trans         <2.2|DMZ|1.2>     0.000000162656 au =     0.000000413403 Debye
 !MCSCF expec         <2.2|DMZ|2.2>     0.492617556860 au =     1.252026930164 Debye


 Natural orbital dump (state averaged) at molpro section  2140.2    (Orbital set 2)



 **********************************************************************************************************************************
 DATASETS  * FILE   NREC   LENGTH (MB)   RECORD NAMES
              1      20       21.54       500      610      700      900      950      970     1000      129      960     1100   
                                          VAR    BASINP    GEOM    SYMINP    ZMAT    AOBASIS   BASIS     P2S    ABASIS      S 
                                         1400     1410     1200     1210     1080     1600     1650     1300     1700     1380   
                                           T        V       H0       H01     AOSYM     SMH    MOLCAS    ERIS     OPER     JKOP   

              2       5        5.33       700     1000      520     2100     2140   
                                         GEOM     BASIS   MCVARS     RHF     MCSCF   

 PROGRAMS   *        TOTAL     MULTI        HF       INT
 CPU TIMES  *         0.51      0.25      0.04      0.11
 REAL TIME  *         0.71 SEC
 DISK USED  *        34.97 MB      
 **********************************************************************************************************************************


 PROGRAM * RS2 (Multireference RS Perturbation Theory)     Authors: H.-J. Werner (1993), P. Celani (1998)


 Convergence thresholds:  THRVAR = 1.00D-10  THRDEN = 1.00D-08

 Number of optimized states:  2  Roots:   1   2
 Number of reference states:  2  Roots:   1   2

 Reference symmetry:                   2   Singlet 
 Number of electrons:                 18
 Maximum number of shells:             5
 Maximum number of spin couplings:    14

 Reference space:      126 conf      210 CSFs
 N elec internal:      357 conf      490 CSFs
 N-1 el internal:      393 conf      784 CSFs
 N-2 el internal:      267 conf      868 CSFs

 Number of electrons in valence space:                      8
 Maximum number of open shell orbitals in reference space:  6
 Maximum number of open shell orbitals in internal spaces:  8


 Number of core orbitals:           5 (   4   1 )
 Number of active  orbitals:        7 (   6   1 )
 Number of external orbitals:      33 (  23  10 )

 Molecular orbitals read from record     2140.2  Type=MCSCF/NATURAL (state averaged)

 Coulomb and exchange operators available. No transformation done.

 Number of p-space configurations:   3

 Reference wavefunction optimized for reference space (refopt=1)

 State     Reference Energy 
   1        -398.47643835
   2        -398.44697564

 Number of blocks in overlap matrix:     4   Smallest eigenvalue:  0.34D-03
 Number of N-2 electron functions:      96
 Number of N-1 electron functions:     784

 Number of internal configurations:                  210
 Number of singly external configurations:         12572
 Number of doubly external configurations:         28362
 Total number of contracted configurations:        41144
 Total number of uncontracted configurations:     253624

 Weight factors for SA-density in H0:    0.500000  0.500000

 FIMAX=  0.25D+00  FXMAX=  0.25D-07  DIAG=  F  F  NOREF=1  NOINT=0  IHPPD=2

 Nuclear energy:                      14.21494781
 Core energy:                       -396.24346116
 Zeroth-order valence energy:         -5.15364017     -5.10452384
 Zeroth-order total energy:         -387.18215351   -387.13303718
 First-order energy:                 -11.29428484    -11.31393846

 There are only all-active singles.
 Contracted Singles code is turned off.


 Using uncontracted singles

 noint is 2

 Diagonal Coupling coefficients finished.               Storage:   21928 words, CPU-Time:      0.00 seconds.
 Energy denominators for pairs finished in 0 passes.    Storage:    9118 words, CPU-time:      0.00 seconds.

  ITER. STATE  ROOT     SQ.NORM     CORR.ENERGY   TOTAL ENERGY   ENERGY CHANGE       DEN1      VAR(S)    VAR(P)      TIME
    1     1     1     1.02680244     0.00000000  -398.47643835     0.00000000    -0.12459254  0.27D-01  0.30D-01     0.09
    1     2     2     1.03303522     0.00000000  -398.44697564     0.00000000    -0.13580867  0.33D-01  0.36D-01     0.09
    2     1     1     1.05864207    -0.12520359  -398.60164194    -0.12520359    -0.00136528  0.50D-03  0.23D-03     0.11
    2     2     2     1.07027282    -0.13539827  -398.58237392    -0.13539827    -0.00068035  0.74D-03  0.24D-03     0.11
    3     1     1     1.06022752    -0.12645149  -398.60288984    -0.00124790    -0.00116405  0.53D-04  0.24D-05     0.14
    3     2     2     1.07369294    -0.13655426  -398.58352990    -0.00115599    -0.00105319  0.61D-03  0.48D-05     0.14
    4     1     1     1.06044173    -0.12651862  -398.60295697    -0.00006713    -0.00006640  0.43D-05  0.12D-05     0.17
    4     2     2     1.07824811    -0.13673287  -398.58370852    -0.00017861    -0.00009062  0.88D-03  0.52D-05     0.17
    5     1     1     1.06060371    -0.12652394  -398.60296229    -0.00000532    -0.00006307  0.84D-06  0.26D-07     0.20
    5     2     2     1.08628655    -0.13694029  -398.58391593    -0.00020741    -0.00010927  0.14D-02  0.73D-05     0.20
    6     1     1     1.06062254    -0.12652449  -398.60296284    -0.00000055    -0.00000335  0.12D-06  0.16D-07     0.23
    6     2     2     1.10007374    -0.13725898  -398.58423462    -0.00031869    -0.00008408  0.21D-02  0.11D-04     0.23
    7     1     1     1.06064109    -0.12652456  -398.60296291    -0.00000007    -0.00000521  0.26D-07  0.61D-09     0.25
    7     2     2     1.12327211    -0.13775474  -398.58473038    -0.00049577    -0.00010647  0.33D-02  0.18D-04     0.25
    8     1     1     1.06064344    -0.12652457  -398.60296292    -0.00000001    -0.00000005  0.48D-08  0.29D-09     0.29
    8     2     2     1.16155768    -0.13852641  -398.58550205    -0.00077167    -0.00013299  0.52D-02  0.28D-04     0.29
    9     1     1     1.06064609    -0.12652457  -398.60296293    -0.00000000    -0.00000058  0.11D-08  0.23D-10     0.31
    9     2     2     1.22387539    -0.13972755  -398.58670319    -0.00120114    -0.00017113  0.81D-02  0.43D-04     0.31
   10     1     1     1.06064649    -0.12652457  -398.60296293    -0.00000000     0.00000003  0.21D-09  0.76D-11     0.34
   10     2     2     1.31240778    -0.14159720  -398.58857284    -0.00186965    -0.00020185  0.10D-01  0.67D-04     0.34
   11     1     1     1.06064694    -0.12652457  -398.60296293    -0.00000000    -0.00000008  0.46D-10  0.11D-11     0.37
   11     2     2     1.42113844    -0.14417694  -398.59115258    -0.00257974    -0.00021169  0.10D-01  0.83D-04     0.37
   12     1     1     1.06064702    -0.12652457  -398.60296293    -0.00000000     0.00000001  0.97D-11  0.28D-12     0.40
   12     2     2     1.55008679    -0.14728267  -398.59425831    -0.00310573    -0.00021196  0.10D-01  0.83D-04     0.40
   13     1     1     1.06064710    -0.12652457  -398.60296293    -0.00000000    -0.00000001  0.21D-11  0.51D-13     0.43
   13     2     2     1.69920369    -0.15090427  -398.59787991    -0.00362160    -0.00021199  0.10D-01  0.83D-04     0.43
   14     1     1     1.06064712    -0.12652457  -398.60296293    -0.00000000     0.00000000  0.46D-12  0.12D-13     0.46
   14     2     2     1.86848897    -0.15504174  -398.60201738    -0.00413748    -0.00021200  0.10D-01  0.83D-04     0.46
   15     1     1     1.06064714    -0.12652457  -398.60296293    -0.00000000    -0.00000000  0.10D-12  0.25D-14     0.49
   15     2     2     2.05794256    -0.15969508  -398.60667072    -0.00465334    -0.00021201  0.10D-01  0.83D-04     0.49
   16     1     1     1.06064714    -0.12652457  -398.60296293    -0.00000000     0.00000000  0.22D-13  0.59D-15     0.52
   16     2     2     2.26756444    -0.16486429  -398.61183993    -0.00516920    -0.00021201  0.10D-01  0.83D-04     0.52
   17     1     1     1.06064715    -0.12652457  -398.60296293    -0.00000000    -0.00000000  0.50D-14  0.13D-15     0.55
   17     2     2     2.49735461    -0.17054935  -398.61752500    -0.00568507    -0.00021201  0.10D-01  0.83D-04     0.55
   18     1     1     1.06064715    -0.12652457  -398.60296293     0.00000000     0.00000000  0.11D-14  0.30D-16     0.58
   18     2     2     2.74731307    -0.17675029  -398.62372593    -0.00620093    -0.00021201  0.10D-01  0.83D-04     0.58
   19     1     1     1.06064715    -0.12652457  -398.60296293     0.00000000    -0.00000000  0.25D-15  0.66D-17     0.61
   19     2     2     3.01743981    -0.18346708  -398.63044273    -0.00671680    -0.00021201  0.10D-01  0.83D-04     0.61
   20     1     1     1.06064715    -0.12652457  -398.60296293     0.00000000     0.00000000  0.56D-16  0.16D-17     0.63
   20     2     2     3.30773483    -0.19069974  -398.63767539    -0.00723266    -0.00021201  0.10D-01  0.83D-04     0.63
   21     1     1     1.06064715    -0.12652457  -398.60296293     0.00000000    -0.00000000  0.12D-16  0.41D-18     0.67
   21     2     2     3.61819814    -0.19844827  -398.64542391    -0.00774852    -0.00021201  0.10D-01  0.83D-04     0.67
   22     1     1     1.06064715    -0.12652457  -398.60296293     0.00000000     0.00000000  0.28D-17  0.93D-19     0.69
   22     2     2     3.94882973    -0.20671265  -398.65368830    -0.00826439    -0.00021201  0.10D-01  0.83D-04     0.69
   23     1     1     1.06064715    -0.12652457  -398.60296293     0.00000000    -0.00000000  0.49D-18  0.87D-19     0.72
   23     2     2     4.29962961    -0.21549290  -398.66246855    -0.00878025    -0.00021201  0.10D-01  0.83D-04     0.72
   24     1     1     1.06064715    -0.12652457  -398.60296293     0.00000000    -0.00000000  0.17D-18  0.00D+00     0.75
   24     2     2     4.67059777    -0.22478902  -398.67176466    -0.00929611    -0.00021201  0.10D-01  0.83D-04     0.75
   25     1     1     1.06064715    -0.12652457  -398.60296293     0.00000000    -0.00000000  0.25D-19  0.25D-19     0.78
   25     2     2     5.06173421    -0.23460100  -398.68157664    -0.00981198    -0.00021201  0.10D-01  0.83D-04     0.78
   26     1     1     1.06064715    -0.12652457  -398.60296293     0.00000000    -0.00000000  0.11D-19  0.00D+00     0.80
   26     2     2     5.47303894    -0.24492884  -398.69190448    -0.01032784    -0.00021201  0.10D-01  0.83D-04     0.80
   27     1     1     1.06064715    -0.12652457  -398.60296293     0.00000000    -0.00000000  0.00D+00  0.00D+00     0.83
   27     2     2     5.90451196    -0.25577255  -398.70274819    -0.01084371    -0.00021201  0.10D-01  0.83D-04     0.83
   28     1     1     1.06064715    -0.12652457  -398.60296293     0.00000000    -0.00000000  0.00D+00  0.00D+00     0.85
   28     2     2     6.35615325    -0.26713212  -398.71410776    -0.01135957    -0.00021201  0.10D-01  0.83D-04     0.85
   29     1     1     1.06064715    -0.12652457  -398.60296293     0.00000000    -0.00000000  0.00D+00  0.00D+00     0.89
   29     2     2     6.82796284    -0.27900755  -398.72598319    -0.01187543    -0.00021201  0.10D-01  0.83D-04     0.89
   30     1     1     1.06064715    -0.12652457  -398.60296293     0.00000000    -0.00000000  0.00D+00  0.00D+00     0.91
   30     2     2     7.31994070    -0.29139885  -398.73837449    -0.01239130    -0.00021201  0.10D-01  0.83D-04     0.91

 Energy contributions for state 1.2:
 ===================================

            Energy contr.      SQ.Norm of FOWF
 Space I      0.00000000          0.00000000
 Space S     -0.05120039          0.03050598
 Space P     -0.07532419          0.03014117

 Energy contributions for state 2.2:
 ===================================

            Energy contr.      SQ.Norm of FOWF
 Space I      0.00000000          0.00000000
 Space S     -0.20104391          6.24128560
 Space P     -0.09035494          0.07865510

 ?CI HAS NOT CONVERGED IN MAX ITERATIONS


 =====================================
 Analysis of CPU times by interactions
 =====================================

       I      S      P

 I   0.0%
 S   0.0%   6.6%
 P   1.1%  60.4%   4.4%

 Initialization:   7.7%
 Other:           19.8%

 Total CPU:        0.9 seconds
 =====================================


 Initialize record     7000.1

 *******************************************
 * MS-CASPT2 analysis                      *
 *******************************************


 S final
                   1             2
         1     1.0606471     0.0000000
         2     0.0000000     7.3199407

 Heff final
                   1             2
         1  -398.6029629    -0.0000000
         2    -0.0000000  -398.7383745

 *******************************************
 * Diagonalization of Heff                 *
 * Unscaled effective Hamiltonian          *
 *******************************************

 Heff Brandow symmetrized
                   1             2
         1  -398.6029629    -0.0000000
         2    -0.0000000  -398.7383745

 MS-CASPT2 energies

 STATE       ENERGY     MIXING COEFFICIENTS
    1   -398.7383744    0.0000    1.0000
    2   -398.6029629    1.0000   -0.0000

 =====================================

 Heff Half Sum symmetrized
                   1             2
         1  -398.6029629    -0.0000000
         2    -0.0000000  -398.7383745

 MS-CASPT2 energies (unshifted)

 STATE       ENERGY     MIXING COEFFICIENTS
    1   -398.7383744    0.0000    1.0000
    2   -398.6029629    1.0000   -0.0000

 Norm of Psi_mix recalculated     7.32380244
 
 *******************************************
 * End of MS-CASPT2 analysis               *
 * Properties not yet implemented          *
 *******************************************

 Now solve CP-CASPT2 equations

  ITER. STATE  ROOT     SQ.NORM     CORR.ENERGY   TOTAL ENERGY   ENERGY CHANGE       DEN1      VAR(S)    VAR(P)      TIME
    1     1     1     1.00000000     0.00000000  -398.47643835     0.00000000    -0.00000000  0.30D-18  0.11D-17     0.96
    1     2     2     1.03303522     0.00000000  -398.44697564     0.00000000    -0.13580867  0.33D-01  0.36D-01     0.96
    2     1     1     1.00000000     0.00000000  -398.47643835     0.00000000    -0.00000000  0.23D-19  0.00D+00     0.99
    2     2     2     1.07027282    -0.13539827  -398.58237392    -0.13539827    -0.00068035  0.74D-03  0.24D-03     0.99
    3     1     1     1.00000000     0.00000000  -398.47643835     0.00000000    -0.00000000  0.00D+00  0.00D+00     1.01
    3     2     2     1.07369294    -0.13655426  -398.58352990    -0.00115599    -0.00105319  0.61D-03  0.48D-05     1.01
    4     1     1     1.00000000     0.00000000  -398.47643835     0.00000000    -0.00000000  0.00D+00  0.00D+00     1.04
    4     2     2     1.07824811    -0.13673287  -398.58370852    -0.00017861    -0.00009062  0.88D-03  0.52D-05     1.04
    5     1     1     1.00000000     0.00000000  -398.47643835     0.00000000    -0.00000000  0.00D+00  0.00D+00     1.07
    5     2     2     1.08628655    -0.13694029  -398.58391593    -0.00020741    -0.00010927  0.14D-02  0.73D-05     1.07
    6     1     1     1.00000000     0.00000000  -398.47643835     0.00000000    -0.00000000  0.00D+00  0.00D+00     1.10
    6     2     2     1.10007374    -0.13725898  -398.58423462    -0.00031869    -0.00008408  0.21D-02  0.11D-04     1.10
    7     1     1     1.00000000     0.00000000  -398.47643835     0.00000000    -0.00000000  0.00D+00  0.00D+00     1.13
    7     2     2     1.12327211    -0.13775474  -398.58473038    -0.00049577    -0.00010647  0.33D-02  0.18D-04     1.13
    8     1     1     1.00000000     0.00000000  -398.47643835     0.00000000    -0.00000000  0.00D+00  0.00D+00     1.15
    8     2     2     1.16155768    -0.13852641  -398.58550205    -0.00077167    -0.00013299  0.52D-02  0.28D-04     1.15
    9     1     1     1.00000000     0.00000000  -398.47643835     0.00000000    -0.00000000  0.00D+00  0.00D+00     1.18
    9     2     2     1.22387539    -0.13972755  -398.58670319    -0.00120114    -0.00017113  0.81D-02  0.43D-04     1.18
   10     1     1     1.00000000     0.00000000  -398.47643835     0.00000000    -0.00000000  0.00D+00  0.00D+00     1.21
   10     2     2     1.31240778    -0.14159720  -398.58857284    -0.00186965    -0.00020185  0.10D-01  0.67D-04     1.21
   11     1     1     1.00000000     0.00000000  -398.47643835     0.00000000    -0.00000000  0.00D+00  0.00D+00     1.24
   11     2     2     1.42113844    -0.14417694  -398.59115258    -0.00257974    -0.00021169  0.10D-01  0.83D-04     1.24
   12     1     1     1.00000000     0.00000000  -398.47643835     0.00000000    -0.00000000  0.00D+00  0.00D+00     1.27
   12     2     2     1.55008679    -0.14728267  -398.59425831    -0.00310573    -0.00021196  0.10D-01  0.83D-04     1.27
   13     1     1     1.00000000     0.00000000  -398.47643835     0.00000000    -0.00000000  0.00D+00  0.00D+00     1.30
   13     2     2     1.69920369    -0.15090427  -398.59787991    -0.00362160    -0.00021199  0.10D-01  0.83D-04     1.30
   14     1     1     1.00000000     0.00000000  -398.47643835     0.00000000    -0.00000000  0.00D+00  0.00D+00     1.32
   14     2     2     1.86848897    -0.15504174  -398.60201738    -0.00413748    -0.00021200  0.10D-01  0.83D-04     1.32
   15     1     1     1.00000000     0.00000000  -398.47643835     0.00000000    -0.00000000  0.00D+00  0.00D+00     1.35
   15     2     2     2.05794256    -0.15969508  -398.60667072    -0.00465334    -0.00021201  0.10D-01  0.83D-04     1.35
   16     1     1     1.00000000     0.00000000  -398.47643835     0.00000000    -0.00000000  0.00D+00  0.00D+00     1.38
   16     2     2     2.26756444    -0.16486429  -398.61183993    -0.00516920    -0.00021201  0.10D-01  0.83D-04     1.38
   17     1     1     1.00000000     0.00000000  -398.47643835     0.00000000    -0.00000000  0.00D+00  0.00D+00     1.41
   17     2     2     2.49735461    -0.17054935  -398.61752500    -0.00568507    -0.00021201  0.10D-01  0.83D-04     1.41
   18     1     1     1.00000000     0.00000000  -398.47643835     0.00000000    -0.00000000  0.00D+00  0.00D+00     1.44
   18     2     2     2.74731307    -0.17675029  -398.62372593    -0.00620093    -0.00021201  0.10D-01  0.83D-04     1.44
   19     1     1     1.00000000     0.00000000  -398.47643835     0.00000000    -0.00000000  0.00D+00  0.00D+00     1.47
   19     2     2     3.01743981    -0.18346708  -398.63044273    -0.00671680    -0.00021201  0.10D-01  0.83D-04     1.47
   20     1     1     1.00000000     0.00000000  -398.47643835     0.00000000    -0.00000000  0.00D+00  0.00D+00     1.50
   20     2     2     3.30773483    -0.19069974  -398.63767539    -0.00723266    -0.00021201  0.10D-01  0.83D-04     1.50
   21     1     1     1.00000000     0.00000000  -398.47643835     0.00000000    -0.00000000  0.00D+00  0.00D+00     1.53
   21     2     2     3.61819814    -0.19844827  -398.64542391    -0.00774852    -0.00021201  0.10D-01  0.83D-04     1.53
   22     1     1     1.00000000     0.00000000  -398.47643835     0.00000000    -0.00000000  0.00D+00  0.00D+00     1.55
   22     2     2     3.94882973    -0.20671265  -398.65368830    -0.00826439    -0.00021201  0.10D-01  0.83D-04     1.55
   23     1     1     1.00000000     0.00000000  -398.47643835     0.00000000    -0.00000000  0.00D+00  0.00D+00     1.59
   23     2     2     4.29962961    -0.21549290  -398.66246855    -0.00878025    -0.00021201  0.10D-01  0.83D-04     1.59
   24     1     1     1.00000000     0.00000000  -398.47643835     0.00000000    -0.00000000  0.00D+00  0.00D+00     1.61
   24     2     2     4.67059777    -0.22478902  -398.67176466    -0.00929611    -0.00021201  0.10D-01  0.83D-04     1.61
   25     1     1     1.00000000     0.00000000  -398.47643835     0.00000000    -0.00000000  0.00D+00  0.00D+00     1.65
   25     2     2     5.06173421    -0.23460100  -398.68157664    -0.00981198    -0.00021201  0.10D-01  0.83D-04     1.65
   26     1     1     1.00000000     0.00000000  -398.47643835     0.00000000    -0.00000000  0.00D+00  0.00D+00     1.67
   26     2     2     5.47303894    -0.24492884  -398.69190448    -0.01032784    -0.00021201  0.10D-01  0.83D-04     1.67
   27     1     1     1.00000000     0.00000000  -398.47643835     0.00000000    -0.00000000  0.00D+00  0.00D+00     1.71
   27     2     2     5.90451196    -0.25577255  -398.70274819    -0.01084371    -0.00021201  0.10D-01  0.83D-04     1.71
   28     1     1     1.00000000     0.00000000  -398.47643835     0.00000000    -0.00000000  0.00D+00  0.00D+00     1.73
   28     2     2     6.35615325    -0.26713212  -398.71410776    -0.01135957    -0.00021201  0.10D-01  0.83D-04     1.73
   29     1     1     1.00000000     0.00000000  -398.47643835     0.00000000    -0.00000000  0.00D+00  0.00D+00     1.76
   29     2     2     6.82796284    -0.27900755  -398.72598319    -0.01187543    -0.00021201  0.10D-01  0.83D-04     1.76
   30     1     1     1.00000000     0.00000000  -398.47643835     0.00000000    -0.00000000  0.00D+00  0.00D+00     1.79
   30     2     2     7.31994070    -0.29139885  -398.73837449    -0.01239130    -0.00021201  0.10D-01  0.83D-04     1.79

 Energy contributions for state 1.2:
 ===================================

            Energy contr.      SQ.Norm of FOWF
 Space I      0.00000000          0.00000000
 Space S     -0.00000000          0.00000000
 Space P     -0.00000000          0.00000000

 Energy contributions for state 2.2:
 ===================================

            Energy contr.      SQ.Norm of FOWF
 Space I      0.00000000          0.00000000
 Space S     -0.20104391          6.24128560
 Space P     -0.09035494          0.07865510

 ?CI HAS NOT CONVERGED IN MAX ITERATIONS


 =====================================
 Analysis of CPU times by interactions
 =====================================

       I      S      P

 I   0.0%
 S   0.0%   6.1%
 P   0.6%  59.8%   7.8%

 Initialization:  52.5%
 Other:          -26.8%

 Total CPU:        1.8 seconds
 =====================================



 Reference coefficients greater than 0.0500000
 =============================================
 222/00\           0.0000000   0.9912791
 2220/0\           0.9902332  -0.0000000
 22/\0/\          -0.0000000  -0.0919813
 22/0\/\          -0.0829830   0.0000000
 22//0\\           0.0000000   0.0666165

 Coefficients of singly external configurations greater than 0.0500000
 =====================================================================

 222000\  11.1     0.0000000   2.4911424
 222000\  14.1    -0.0000000  -0.0890390

 Coefficients of fixed reference functions:
 ==========================================

 State      Coefficients
   1         1.000000   -0.000000
   2        -0.000000    1.000000

 Coefficients of rotated reference functions:
 ============================================

 State      Coefficients
   1         1.000000   -0.000000
   2        -0.000000    1.000000



 RESULTS FOR STATE 1.2
 =====================

 Coefficient of reference function:   C(0) = 1.00000000 (fixed)   1.00000000 (relaxed)   1.00000000 (rotated)

 Energy contributions of configuration classes

 CLASS          SQ.NORM        ECORR1        ECORR2
 +++++++++++++++++++++++++++++++++++++++++++++++++++
 Internals    0.00000000    0.00000000    0.00000093
 Singles      0.00000000    0.00000000    0.00000111
 Pairs        0.00000000   -0.00000000   -0.00000283
 Total        1.00000000   -0.00000000   -0.00000079
 +++++++++++++++++++++++++++++++++++++++++++++++++++


 Reference energy                    -398.47643835
 Nuclear energy                        14.21494781
 Kinetic energy                       398.69383920
 One electron energy                 -575.36249859
 Two electron energy                  162.40917629
 Virial quotient                       -1.00011170
 Correlation energy                    -0.26193614
 !RSPT2 STATE 1.2 Energy             -398.738374490510

 Properties without orbital relaxation:

 !RSPT2 STATE 1.2 Dipole moment         0.00000000     0.00000009    -1.31008316
 Dipole moment /Debye                   0.00000000     0.00000023    -3.32968117



 RESULTS FOR STATE 2.2
 =====================

 Coefficient of reference function:   C(0) = 1.00000000 (fixed)   1.00000000 (relaxed)   1.00000000 (rotated)

 Energy contributions of configuration classes

 CLASS          SQ.NORM        ECORR1        ECORR2
 +++++++++++++++++++++++++++++++++++++++++++++++++++
 Internals   -0.00000000    0.00000000    0.07514664
 Singles      6.24128560   -0.05119347   -0.13502395
 Pairs        0.07865510   -0.08918749   -0.09610997
 Total        7.31994070   -0.14038095   -0.15598728
 +++++++++++++++++++++++++++++++++++++++++++++++++++


 Reference energy                    -398.44697564
 Nuclear energy                        14.21494781
 Kinetic energy                       398.35065343
 One electron energy                 -574.15252085
 Two electron energy                  161.33461011
 Virial quotient                       -1.00063339
 Correlation energy                    -0.15598728
 !RSPT2 STATE 2.2 Energy             -398.602962926247

 Properties without orbital relaxation:

 !RSPT2 STATE 2.2 Dipole moment         0.00000000    -0.00000011    -2.09008981
 Dipole moment /Debye                   0.00000000    -0.00000028    -5.31213046

 !RSPT trans          <2.2|DMY|1.2>    -3.359467168611 au =    -8.538354566398 Debye
 !RSPT trans          <2.2|DMZ|1.2>    -0.000000091070 au =    -0.000000231460 Debye

 *** Long output written to logfile /home/user/ahs/molpro_egrad/ex17_msmrcaspt2_alaska_h2s.log ***


 Solving MCSCF z-vector equations for state  1.2, requested accuracy=      0.10D-05
 Convergence reached in  24 iterations ( 24 expansion vectors), accuracy=  0.75D-06

 Properties including orbital relaxation:

 !RSPT2 dipole moments (ED):            0.00000000    -0.00000196    -6.65487422

 RSPT2 Gradient info saved on record         5200.1

 CPU-time for rhs:            0.13 sec
 CPU-time for cpmcscf:        0.10 sec
 CPU-time for densities:      0.00 sec


 **********************************************************************************************************************************
 DATASETS  * FILE   NREC   LENGTH (MB)   RECORD NAMES
              1      26       23.28       500      610      700      900      950      970     1000      129      960     1100   
                                          VAR    BASINP    GEOM    SYMINP    ZMAT    AOBASIS   BASIS     P2S    ABASIS      S 
                                         1400     1410     1200     1210     1080     1600     1650     1300     1700     1380   
                                           T        V       H0       H01     AOSYM     SMH    MOLCAS    ERIS     OPER     JKOP   
                                         7000     7001     7002     5200     5210     7005   
                                                                   RS2GRAD  RS2GRAD    

              2       5        5.33       700     1000      520     2100     2140   
                                         GEOM     BASIS   MCVARS     RHF     MCSCF   

 PROGRAMS   *        TOTAL       RS2     MULTI        HF       INT
 CPU TIMES  *         2.66      2.15      0.25      0.04      0.11
 REAL TIME  *         2.98 SEC
 DISK USED  *        46.49 MB      
 **********************************************************************************************************************************


 PROGRAM * ALASKA (Gradient of the energy)     Author: R. Lindh


 RSPT2 Gradient info restored from record    5200.1

 Number of core orbitals:           5 (   4   1 )
 Number of active  orbitals:        7 (   6   1 )
 Number of external orbitals:      33 (  23  10 )

 Integral thresholds in T2TRAN:            1.0D-10 (PROD)

 Available memory for Transformation:  29865767 words
 Memory needed for incore algorithm:      89289 words
 Minimum memory needed:                   62724 words

 Memory used for transformation:           0.09 MW
 Available memory for gradients:          31.78 MW

 CPU for transformation:                   0.01 sec
 CPU for integrals and gradient:           0.15 sec
 Total CPU:                                0.16 sec

 Prescreening statistics:
 ========================

 Total number of shell quadruplets:        4.06D+02
 Number of shell quadruplets processed:    4.06D+02 (100.00%)

 RSPT2 GRADIENT FOR STATE 1.2

 Atom          dE/dx               dE/dy               dE/dz

   1         0.000000000        -0.000000049        -0.240385914
   2         0.000000000        -0.040460113         0.120192987
   3         0.000000000         0.040460162         0.120192927

 Nuclear force contribution to virial =         0.249634888


 **********************************************************************************************************************************
 DATASETS  * FILE   NREC   LENGTH (MB)   RECORD NAMES
              1      26       23.28       500      610      700      900      950      970     1000      129      960     1100   
                                          VAR    BASINP    GEOM    SYMINP    ZMAT    AOBASIS   BASIS     P2S    ABASIS      S 
                                         1400     1410     1200     1210     1080     1600     1650     1300     1700     1380   
                                           T        V       H0       H01     AOSYM     SMH    MOLCAS    ERIS     OPER     JKOP   
                                         7000     7001     7002     5200     5210     7005   
                                                                   RS2GRAD  RS2GRAD    

              2       5        5.33       700     1000      520     2100     2140   
                                         GEOM     BASIS   MCVARS     RHF     MCSCF   

 PROGRAMS   *        TOTAL    FORCES       RS2     MULTI        HF       INT
 CPU TIMES  *         2.86      0.20      2.15      0.25      0.04      0.11
 REAL TIME  *         3.21 SEC
 DISK USED  *        46.49 MB      
 **********************************************************************************************************************************


 PROGRAM * RS2 (Multireference RS Perturbation Theory)     Authors: H.-J. Werner (1993), P. Celani (1998)


 Convergence thresholds:  THRVAR = 1.00D-10  THRDEN = 1.00D-08

 Number of optimized states:  2  Roots:   1   2
 Number of reference states:  2  Roots:   1   2

 Reference symmetry:                   2   Singlet 
 Number of electrons:                 18
 Maximum number of shells:             5
 Maximum number of spin couplings:    14

 Reference space:      126 conf      210 CSFs
 N elec internal:      357 conf      490 CSFs
 N-1 el internal:      393 conf      784 CSFs
 N-2 el internal:      267 conf      868 CSFs

 Number of electrons in valence space:                      8
 Maximum number of open shell orbitals in reference space:  6
 Maximum number of open shell orbitals in internal spaces:  8


 Number of core orbitals:           5 (   4   1 )
 Number of active  orbitals:        7 (   6   1 )
 Number of external orbitals:      33 (  23  10 )

 Molecular orbitals read from record     2140.2  Type=MCSCF/NATURAL (state averaged)

 Coulomb and exchange operators available. No transformation done.

 Number of p-space configurations:   3

 Reference wavefunction optimized for reference space (refopt=1)

 State     Reference Energy 
   1        -398.47643835
   2        -398.44697564

 Number of blocks in overlap matrix:     4   Smallest eigenvalue:  0.34D-03
 Number of N-2 electron functions:      96
 Number of N-1 electron functions:     784

 Number of internal configurations:                  210
 Number of singly external configurations:         12572
 Number of doubly external configurations:         28362
 Total number of contracted configurations:        41144
 Total number of uncontracted configurations:     253624

 Weight factors for SA-density in H0:    0.500000  0.500000

 FIMAX=  0.25D+00  FXMAX=  0.25D-07  DIAG=  F  F  NOREF=1  NOINT=0  IHPPD=2

 Nuclear energy:                      14.21494781
 Core energy:                       -396.24346116
 Zeroth-order valence energy:         -5.15364017     -5.10452384
 Zeroth-order total energy:         -387.18215351   -387.13303718
 First-order energy:                 -11.29428484    -11.31393846

 There are only all-active singles.
 Contracted Singles code is turned off.


 Using uncontracted singles

 noint is 2

 Diagonal Coupling coefficients finished.               Storage:   21928 words, CPU-Time:      0.00 seconds.
 Energy denominators for pairs finished in 0 passes.    Storage:    9118 words, CPU-time:      0.00 seconds.

  ITER. STATE  ROOT     SQ.NORM     CORR.ENERGY   TOTAL ENERGY   ENERGY CHANGE       DEN1      VAR(S)    VAR(P)      TIME
    1     1     1     1.02680244     0.00000000  -398.47643835     0.00000000    -0.12459254  0.27D-01  0.30D-01     0.08
    1     2     2     1.03303522     0.00000000  -398.44697564     0.00000000    -0.13580867  0.33D-01  0.36D-01     0.08
    2     1     1     1.05864207    -0.12520359  -398.60164194    -0.12520359    -0.00136528  0.50D-03  0.23D-03     0.11
    2     2     2     1.07027282    -0.13539827  -398.58237392    -0.13539827    -0.00068035  0.74D-03  0.24D-03     0.11
    3     1     1     1.06022752    -0.12645149  -398.60288984    -0.00124790    -0.00116405  0.53D-04  0.24D-05     0.14
    3     2     2     1.07369294    -0.13655426  -398.58352990    -0.00115599    -0.00105319  0.61D-03  0.48D-05     0.14
    4     1     1     1.06044173    -0.12651862  -398.60295697    -0.00006713    -0.00006640  0.43D-05  0.12D-05     0.16
    4     2     2     1.07824811    -0.13673287  -398.58370852    -0.00017861    -0.00009062  0.88D-03  0.52D-05     0.16
    5     1     1     1.06060371    -0.12652394  -398.60296229    -0.00000532    -0.00006307  0.84D-06  0.26D-07     0.20
    5     2     2     1.08628655    -0.13694029  -398.58391593    -0.00020741    -0.00010927  0.14D-02  0.73D-05     0.20
    6     1     1     1.06062254    -0.12652449  -398.60296284    -0.00000055    -0.00000335  0.12D-06  0.16D-07     0.22
    6     2     2     1.10007374    -0.13725898  -398.58423462    -0.00031869    -0.00008408  0.21D-02  0.11D-04     0.22
    7     1     1     1.06064109    -0.12652456  -398.60296291    -0.00000007    -0.00000521  0.26D-07  0.61D-09     0.25
    7     2     2     1.12327211    -0.13775474  -398.58473038    -0.00049577    -0.00010647  0.33D-02  0.18D-04     0.25
    8     1     1     1.06064344    -0.12652457  -398.60296292    -0.00000001    -0.00000005  0.48D-08  0.29D-09     0.28
    8     2     2     1.16155768    -0.13852641  -398.58550205    -0.00077167    -0.00013299  0.52D-02  0.28D-04     0.28
    9     1     1     1.06064609    -0.12652457  -398.60296293    -0.00000000    -0.00000058  0.11D-08  0.23D-10     0.31
    9     2     2     1.22387539    -0.13972755  -398.58670319    -0.00120114    -0.00017113  0.81D-02  0.43D-04     0.31
   10     1     1     1.06064649    -0.12652457  -398.60296293    -0.00000000     0.00000003  0.21D-09  0.76D-11     0.34
   10     2     2     1.31240778    -0.14159720  -398.58857284    -0.00186965    -0.00020185  0.10D-01  0.67D-04     0.34
   11     1     1     1.06064694    -0.12652457  -398.60296293    -0.00000000    -0.00000008  0.46D-10  0.11D-11     0.36
   11     2     2     1.42113844    -0.14417694  -398.59115258    -0.00257974    -0.00021169  0.10D-01  0.83D-04     0.36
   12     1     1     1.06064702    -0.12652457  -398.60296293    -0.00000000     0.00000001  0.97D-11  0.28D-12     0.40
   12     2     2     1.55008679    -0.14728267  -398.59425831    -0.00310573    -0.00021196  0.10D-01  0.83D-04     0.40
   13     1     1     1.06064710    -0.12652457  -398.60296293    -0.00000000    -0.00000001  0.21D-11  0.51D-13     0.42
   13     2     2     1.69920369    -0.15090427  -398.59787991    -0.00362160    -0.00021199  0.10D-01  0.83D-04     0.42
   14     1     1     1.06064712    -0.12652457  -398.60296293    -0.00000000     0.00000000  0.46D-12  0.12D-13     0.45
   14     2     2     1.86848897    -0.15504174  -398.60201738    -0.00413748    -0.00021200  0.10D-01  0.83D-04     0.45
   15     1     1     1.06064714    -0.12652457  -398.60296293    -0.00000000    -0.00000000  0.10D-12  0.25D-14     0.48
   15     2     2     2.05794256    -0.15969508  -398.60667072    -0.00465334    -0.00021201  0.10D-01  0.83D-04     0.48
   16     1     1     1.06064714    -0.12652457  -398.60296293    -0.00000000     0.00000000  0.22D-13  0.59D-15     0.51
   16     2     2     2.26756444    -0.16486429  -398.61183993    -0.00516920    -0.00021201  0.10D-01  0.83D-04     0.51
   17     1     1     1.06064715    -0.12652457  -398.60296293    -0.00000000    -0.00000000  0.50D-14  0.13D-15     0.54
   17     2     2     2.49735461    -0.17054935  -398.61752500    -0.00568507    -0.00021201  0.10D-01  0.83D-04     0.54
   18     1     1     1.06064715    -0.12652457  -398.60296293    -0.00000000     0.00000000  0.11D-14  0.30D-16     0.56
   18     2     2     2.74731307    -0.17675029  -398.62372593    -0.00620093    -0.00021201  0.10D-01  0.83D-04     0.56
   19     1     1     1.06064715    -0.12652457  -398.60296293     0.00000000    -0.00000000  0.25D-15  0.66D-17     0.60
   19     2     2     3.01743981    -0.18346708  -398.63044273    -0.00671680    -0.00021201  0.10D-01  0.83D-04     0.60
   20     1     1     1.06064715    -0.12652457  -398.60296293     0.00000000     0.00000000  0.56D-16  0.16D-17     0.62
   20     2     2     3.30773483    -0.19069974  -398.63767539    -0.00723266    -0.00021201  0.10D-01  0.83D-04     0.62
   21     1     1     1.06064715    -0.12652457  -398.60296293     0.00000000    -0.00000000  0.12D-16  0.41D-18     0.65
   21     2     2     3.61819814    -0.19844827  -398.64542391    -0.00774852    -0.00021201  0.10D-01  0.83D-04     0.65
   22     1     1     1.06064715    -0.12652457  -398.60296293     0.00000000     0.00000000  0.28D-17  0.93D-19     0.68
   22     2     2     3.94882973    -0.20671265  -398.65368830    -0.00826439    -0.00021201  0.10D-01  0.83D-04     0.68
   23     1     1     1.06064715    -0.12652457  -398.60296293     0.00000000    -0.00000000  0.49D-18  0.87D-19     0.71
   23     2     2     4.29962961    -0.21549290  -398.66246855    -0.00878025    -0.00021201  0.10D-01  0.83D-04     0.71
   24     1     1     1.06064715    -0.12652457  -398.60296293     0.00000000    -0.00000000  0.17D-18  0.00D+00     0.74
   24     2     2     4.67059777    -0.22478902  -398.67176466    -0.00929611    -0.00021201  0.10D-01  0.83D-04     0.74
   25     1     1     1.06064715    -0.12652457  -398.60296293     0.00000000    -0.00000000  0.25D-19  0.25D-19     0.77
   25     2     2     5.06173421    -0.23460100  -398.68157664    -0.00981198    -0.00021201  0.10D-01  0.83D-04     0.77
   26     1     1     1.06064715    -0.12652457  -398.60296293     0.00000000    -0.00000000  0.11D-19  0.00D+00     0.79
   26     2     2     5.47303894    -0.24492884  -398.69190448    -0.01032784    -0.00021201  0.10D-01  0.83D-04     0.79
   27     1     1     1.06064715    -0.12652457  -398.60296293     0.00000000    -0.00000000  0.00D+00  0.00D+00     0.82
   27     2     2     5.90451196    -0.25577255  -398.70274819    -0.01084371    -0.00021201  0.10D-01  0.83D-04     0.82
   28     1     1     1.06064715    -0.12652457  -398.60296293     0.00000000    -0.00000000  0.00D+00  0.00D+00     0.85
   28     2     2     6.35615325    -0.26713212  -398.71410776    -0.01135957    -0.00021201  0.10D-01  0.83D-04     0.85
   29     1     1     1.06064715    -0.12652457  -398.60296293     0.00000000    -0.00000000  0.00D+00  0.00D+00     0.88
   29     2     2     6.82796284    -0.27900755  -398.72598319    -0.01187543    -0.00021201  0.10D-01  0.83D-04     0.88
   30     1     1     1.06064715    -0.12652457  -398.60296293     0.00000000    -0.00000000  0.00D+00  0.00D+00     0.91
   30     2     2     7.31994070    -0.29139885  -398.73837449    -0.01239130    -0.00021201  0.10D-01  0.83D-04     0.91

 Energy contributions for state 1.2:
 ===================================

            Energy contr.      SQ.Norm of FOWF
 Space I      0.00000000         -0.00000000
 Space S     -0.05120039          0.03050598
 Space P     -0.07532419          0.03014117

 Energy contributions for state 2.2:
 ===================================

            Energy contr.      SQ.Norm of FOWF
 Space I      0.00000000          0.00000000
 Space S     -0.20104391          6.24128560
 Space P     -0.09035494          0.07865510

 ?CI HAS NOT CONVERGED IN MAX ITERATIONS


 =====================================
 Analysis of CPU times by interactions
 =====================================

       I      S      P

 I   1.1%
 S   0.0%   9.9%
 P   1.1%  56.0%   7.7%

 Initialization:   5.5%
 Other:           18.7%

 Total CPU:        0.9 seconds
 =====================================


 Initialize record     7000.1

 *******************************************
 * MS-CASPT2 analysis                      *
 *******************************************


 S final
                   1             2
         1     1.0606471     0.0000000
         2     0.0000000     7.3199407

 Heff final
                   1             2
         1  -398.6029629    -0.0000000
         2    -0.0000000  -398.7383745

 *******************************************
 * Diagonalization of Heff                 *
 * Unscaled effective Hamiltonian          *
 *******************************************

 Heff Brandow symmetrized
                   1             2
         1  -398.6029629    -0.0000000
         2    -0.0000000  -398.7383745

 MS-CASPT2 energies

 STATE       ENERGY     MIXING COEFFICIENTS
    1   -398.7383744    0.0000    1.0000
    2   -398.6029629    1.0000   -0.0000

 =====================================

 Heff Half Sum symmetrized
                   1             2
         1  -398.6029629    -0.0000000
         2    -0.0000000  -398.7383745

 MS-CASPT2 energies (unshifted)

 STATE       ENERGY     MIXING COEFFICIENTS
    1   -398.7383744    0.0000    1.0000
    2   -398.6029629    1.0000   -0.0000

 Norm of Psi_mix recalculated     1.06064715
 
 *******************************************
 * End of MS-CASPT2 analysis               *
 * Properties not yet implemented          *
 *******************************************

 Now solve CP-CASPT2 equations

  ITER. STATE  ROOT     SQ.NORM     CORR.ENERGY   TOTAL ENERGY   ENERGY CHANGE       DEN1      VAR(S)    VAR(P)      TIME
    1     1     1     1.02680244     0.00000000  -398.47643835     0.00000000    -0.12459254  0.27D-01  0.30D-01     0.95
    1     2     2     1.00000000     0.00000000  -398.44697564     0.00000000    -0.00000000  0.28D-18  0.98D-18     0.95
    2     1     1     1.05864207    -0.12520359  -398.60164194    -0.12520359    -0.00136528  0.50D-03  0.23D-03     0.98
    2     2     2     1.00000000     0.00000000  -398.44697564     0.00000000    -0.00000000  0.23D-19  0.00D+00     0.98
    3     1     1     1.06022752    -0.12645149  -398.60288984    -0.00124790    -0.00116405  0.53D-04  0.24D-05     1.01
    3     2     2     1.00000000     0.00000000  -398.44697564     0.00000000    -0.00000000  0.00D+00  0.00D+00     1.01
    4     1     1     1.06044173    -0.12651862  -398.60295697    -0.00006713    -0.00006640  0.43D-05  0.12D-05     1.04
    4     2     2     1.00000000     0.00000000  -398.44697564     0.00000000    -0.00000000  0.00D+00  0.00D+00     1.04
    5     1     1     1.06060371    -0.12652394  -398.60296229    -0.00000532    -0.00006307  0.84D-06  0.26D-07     1.07
    5     2     2     1.00000000     0.00000000  -398.44697564     0.00000000    -0.00000000  0.00D+00  0.00D+00     1.07
    6     1     1     1.06062254    -0.12652449  -398.60296284    -0.00000055    -0.00000335  0.12D-06  0.16D-07     1.10
    6     2     2     1.00000000     0.00000000  -398.44697564     0.00000000    -0.00000000  0.00D+00  0.00D+00     1.10
    7     1     1     1.06064109    -0.12652456  -398.60296291    -0.00000007    -0.00000521  0.26D-07  0.61D-09     1.12
    7     2     2     1.00000000     0.00000000  -398.44697564     0.00000000    -0.00000000  0.00D+00  0.00D+00     1.12
    8     1     1     1.06064344    -0.12652457  -398.60296292    -0.00000001    -0.00000005  0.48D-08  0.29D-09     1.15
    8     2     2     1.00000000     0.00000000  -398.44697564     0.00000000    -0.00000000  0.00D+00  0.00D+00     1.15
    9     1     1     1.06064609    -0.12652457  -398.60296293    -0.00000000    -0.00000058  0.11D-08  0.23D-10     1.18
    9     2     2     1.00000000     0.00000000  -398.44697564     0.00000000    -0.00000000  0.00D+00  0.00D+00     1.18
   10     1     1     1.06064649    -0.12652457  -398.60296293    -0.00000000     0.00000003  0.21D-09  0.76D-11     1.21
   10     2     2     1.00000000     0.00000000  -398.44697564     0.00000000    -0.00000000  0.00D+00  0.00D+00     1.21
   11     1     1     1.06064694    -0.12652457  -398.60296293    -0.00000000    -0.00000008  0.46D-10  0.11D-11     1.24
   11     2     2     1.00000000     0.00000000  -398.44697564     0.00000000    -0.00000000  0.00D+00  0.00D+00     1.24

 Energy contributions for state 1.2:
 ===================================

            Energy contr.      SQ.Norm of FOWF
 Space I      0.00000000         -0.00000000
 Space S     -0.05120039          0.03050578
 Space P     -0.07532419          0.03014116

 Energy contributions for state 2.2:
 ===================================

            Energy contr.      SQ.Norm of FOWF
 Space I      0.00000000          0.00000000
 Space S     -0.00000000          0.00000000
 Space P     -0.00000000          0.00000000


 =====================================
 Analysis of CPU times by interactions
 =====================================

       I      S      P

 I   0.8%
 S   0.0%   8.1%
 P   0.8%  56.5%   7.3%

 Initialization:  75.0%
 Other:          -48.4%

 Total CPU:        1.2 seconds
 =====================================



 Reference coefficients greater than 0.0500000
 =============================================
 222/00\           0.0000000   0.9912791
 2220/0\           0.9902332  -0.0000000
 22/\0/\          -0.0000000  -0.0919813
 22/0\/\          -0.0829830   0.0000000
 22//0\\           0.0000000   0.0666165

 Coefficients of fixed reference functions:
 ==========================================

 State      Coefficients
   1         1.000000    0.000000
   2         0.000000    1.000000

 Coefficients of rotated reference functions:
 ============================================

 State      Coefficients
   1         1.000000    0.000000
   2         0.000000    1.000000



 RESULTS FOR STATE 1.2
 =====================

 Coefficient of reference function:   C(0) = 1.00000000 (fixed)   1.00000000 (relaxed)   1.00000000 (rotated)

 Energy contributions of configuration classes

 CLASS          SQ.NORM        ECORR1        ECORR2
 +++++++++++++++++++++++++++++++++++++++++++++++++++
 Internals   -0.00000000    0.00000000    0.26193613
 Singles      0.03050578   -0.05120038   -0.21199409
 Pairs        0.03014116   -0.07532419   -0.31187818
 Total        1.06064694   -0.12652457   -0.26193614
 +++++++++++++++++++++++++++++++++++++++++++++++++++


 Reference energy                    -398.47643835
 Nuclear energy                        14.21494781
 Kinetic energy                       398.96585531
 One electron energy                 -575.62386590
 Two electron energy                  162.67054360
 Virial quotient                       -0.99942982
 Correlation energy                    -0.26193614
 !RSPT2 STATE 1.2 Energy             -398.738374490510

 Properties without orbital relaxation:

 !RSPT2 STATE 1.2 Dipole moment         0.00000000    -0.00000002    -1.15354023
 Dipole moment /Debye                   0.00000000    -0.00000005    -2.93181477



 RESULTS FOR STATE 2.2
 =====================

 Coefficient of reference function:   C(0) = 1.00000000 (fixed)   1.00000000 (relaxed)   1.00000000 (rotated)

 Energy contributions of configuration classes

 CLASS          SQ.NORM        ECORR1        ECORR2
 +++++++++++++++++++++++++++++++++++++++++++++++++++
 Internals   -0.00000000    0.00000000   -0.00000041
 Singles      0.00000000   -0.00000000   -0.00000015
 Pairs        0.00000000    0.00000000    0.00000012
 Total        1.00000000    0.00000000   -0.00000044
 +++++++++++++++++++++++++++++++++++++++++++++++++++


 Reference energy                    -398.44697564
 Nuclear energy                        14.21494781
 Kinetic energy                       399.20638390
 One electron energy                 -577.87905949
 Two electron energy                  165.06114875
 Virial quotient                       -0.99848845
 Correlation energy                    -0.15598728
 !RSPT2 STATE 2.2 Energy             -398.602962926247

 Properties without orbital relaxation:

 !RSPT2 STATE 2.2 Dipole moment         0.00000000     0.00000010     0.49262001
 Dipole moment /Debye                   0.00000000     0.00000024     1.25203316

 !RSPT trans          <2.2|DMY|1.2>    -0.277550553883 au =    -0.705416936739 Debye
 !RSPT trans          <2.2|DMZ|1.2>     0.000000133235 au =     0.000000338628 Debye

 Solving MCSCF z-vector equations for state  1.2, requested accuracy=      0.10D-05
 Convergence reached in  21 iterations ( 21 expansion vectors), accuracy=  0.87D-06

 Properties including orbital relaxation:

 !RSPT2 dipole moments (ED):            0.00000000    -0.00000008    -0.93648086

 RSPT2 Gradient info saved on record         5201.1

 CPU-time for rhs:            0.12 sec
 CPU-time for cpmcscf:        0.10 sec
 CPU-time for densities:      0.00 sec


 **********************************************************************************************************************************
 DATASETS  * FILE   NREC   LENGTH (MB)   RECORD NAMES
              1      30       24.99       500      610      700      900      950      970     1000      129      960     1100   
                                          VAR    BASINP    GEOM    SYMINP    ZMAT    AOBASIS   BASIS     P2S    ABASIS      S 
                                         1400     1410     1200     1210     1080     1600     1650     1300     1700     1380   
                                           T        V       H0       H01     AOSYM     SMH    MOLCAS    ERIS     OPER     JKOP   
                                         7001     7002     5200     5210     7005     7000     7003     7004     5201     5211   
                                                          RS2GRAD  RS2GRAD                                      RS2GRAD  RS2GRAD    

              2       5        5.33       700     1000      520     2100     2140   
                                         GEOM     BASIS   MCVARS     RHF     MCSCF   

 PROGRAMS   *        TOTAL       RS2    FORCES       RS2     MULTI        HF       INT
 CPU TIMES  *         4.44      1.58      0.20      2.15      0.25      0.04      0.11
 REAL TIME  *         4.90 SEC
 DISK USED  *        48.22 MB      
 **********************************************************************************************************************************


 PROGRAM * ALASKA (Gradient of the energy)     Author: R. Lindh


 RSPT2 Gradient info restored from record    5201.1

 Number of core orbitals:           5 (   4   1 )
 Number of active  orbitals:        7 (   6   1 )
 Number of external orbitals:      33 (  23  10 )

 Integral thresholds in T2TRAN:            1.0D-10 (PROD)

 Available memory for Transformation:  29865767 words
 Memory needed for incore algorithm:      89289 words
 Minimum memory needed:                   62724 words

 Memory used for transformation:           0.09 MW
 Available memory for gradients:          31.78 MW

 CPU for transformation:                   0.02 sec
 CPU for integrals and gradient:           0.13 sec
 Total CPU:                                0.15 sec

 Prescreening statistics:
 ========================

 Total number of shell quadruplets:        4.06D+02
 Number of shell quadruplets processed:    4.06D+02 (100.00%)

 RSPT2 GRADIENT FOR STATE 2.2

 Atom          dE/dx               dE/dy               dE/dz

   1         0.000000000         0.000000002         0.171953918
   2         0.000000000        -0.093543858        -0.085976959
   3         0.000000000         0.093543857        -0.085976959

 Nuclear force contribution to virial =        -0.584281174


 **********************************************************************************************************************************
 DATASETS  * FILE   NREC   LENGTH (MB)   RECORD NAMES
              1      30       24.99       500      610      700      900      950      970     1000      129      960     1100   
                                          VAR    BASINP    GEOM    SYMINP    ZMAT    AOBASIS   BASIS     P2S    ABASIS      S 
                                         1400     1410     1200     1210     1080     1600     1650     1300     1700     1380   
                                           T        V       H0       H01     AOSYM     SMH    MOLCAS    ERIS     OPER     JKOP   
                                         7001     7002     5200     5210     7005     7000     7003     7004     5201     5211   
                                                          RS2GRAD  RS2GRAD                                      RS2GRAD  RS2GRAD    

              2       5        5.33       700     1000      520     2100     2140   
                                         GEOM     BASIS   MCVARS     RHF     MCSCF   

 PROGRAMS   *        TOTAL    FORCES       RS2    FORCES       RS2     MULTI        HF       INT
 CPU TIMES  *         4.65      0.21      1.58      0.20      2.15      0.25      0.04      0.11
 REAL TIME  *         5.11 SEC
 DISK USED  *        48.22 MB      
 **********************************************************************************************************************************

 RS2/aug-cc-pVDZ energy=   -398.602962926247

        RS2             MULTI           HF-SCF  
   -398.60296293   -398.44697564   -398.67792950
 **********************************************************************************************************************************
 Molpro calculation terminated
 Variable memory released
