
 Primary working directories    : /work/tmp/ahs/molpro_5457
 Secondary working directories  : /work/tmp/ahs/molpro_5457
 Wavefunction directory         : /home/user/ahs/molpro_egrad/
 Main file repository           : /work/tmp/ahs/molpro_5457/

 SHA1      : 10702993644f36e05297f9f7ccce90cffe774945
 NAME      : 2015.1.22
 ARCHNAME  : linux/x86_64
 FC        : /opt/intel/composer_xe_2015.1.133/bin/intel64/ifort
 BLASLIB   : -Wl,-_start-group /opt/intel/mkl/lib/intel64/libmkl_intel_ilp64.a /opt/intel/mkl/lib/intel64/libmkl_intel_thread.a /opt/intel/mkl/lib/intel64/libmkl_core.a -Wl,-_end-group
 id        : gwnuqc

 Nodes     nprocs
 hpc          1

 Using customized tuning parameters: mindgm=1; mindgv=20; mindgc=4; mindgr=1; noblas=0; minvec=7
 default implementation of scratch files=df  

 ***,h2s
 
 basis=avdz
 
 symmetry,x
 geometry={
 S
 H 1 R1
 H 1 R2 2 A1}
 
 R1 = 2.3 bohr
 R2 = 2.3 bohr
 A1 = 92.12 degree
 
 {hf;occ,7,2;wf,18,1,0}
 
 {multi;
     occ,10,2;closed,4,1;
     wf,18,2,0;state,2}
 
 {ci;wf,18,2,0;state,2}
 
 {ci;wf,18,2,0;state,1,1;
          refstate,2}
 forces
 
 {ci;wf,18,2,0;state,1,2;
          refstate,2}
 forces
 

 Variables initialized (889), CPU time= 0.00 sec
 Commands  initialized (702), CPU time= 0.01 sec, 572 directives.
 Default parameters read. Elapsed time= 0.05 sec

 Checking input...
 Passed
1


                                         ***  PROGRAM SYSTEM MOLPRO  ***
                                       Copyright, TTI GmbH Stuttgart, 2015
                                    Version 2015.1 linked Jul  3 2017 13:45:41


 **********************************************************************************************************************************
 LABEL *   h2s                                                                           
  64 bit serial version                                                                  DATE: 20-Mar-18          TIME: 15:17:54  
 **********************************************************************************************************************************

 SHA1:             10702993644f36e05297f9f7ccce90cffe774945
 **********************************************************************************************************************************

 Variable memory set to    8000000 words,  buffer space   230000 words

 SETTING BASIS          =    AVDZ
 ZSYMEL=X  
 
 SETTING R1             =         2.30000000  BOHR                            
 SETTING R2             =         2.30000000  BOHR                            
 SETTING A1             =        92.12000000  DEGREE                          


 Recomputing integrals since basis changed


 Using spherical harmonics

 Library entry S      S aug-cc-pVDZ          selected for orbital group  1
 Library entry S      P aug-cc-pVDZ          selected for orbital group  1
 Library entry S      D aug-cc-pVDZ          selected for orbital group  1
 Library entry H      S aug-cc-pVDZ          selected for orbital group  2
 Library entry H      P aug-cc-pVDZ          selected for orbital group  2


 PROGRAM * SEWARD (Integral evaluation for generally contracted gaussian basis sets)     Author: Roland Lindh, 1990

 Geometry written to block  1 of record 700

 Orientation using atomic masses  
 Molecule type: Asymmetric top
 User-specified symmetry elements: X
 Symmetry elements: X
 Rotational constants:     174.1987743    373.5755810    326.3990902 GHz  (calculated with average atomic masses)

 Point group  Cs  



 ATOMIC COORDINATES

 NR  ATOM    CHARGE       X              Y              Z

   1  S      16.00    0.000000000   -0.000000000   -0.094415927
   2  H       1.00    0.000000000    1.656153756    1.501564881
   3  H       1.00    0.000000000   -1.656153756    1.501564881

 Bond lengths in Bohr (Angstrom)

 1-2  2.300000000  1-3  2.300000000
     ( 1.217107585)     ( 1.217107585)

 Bond angles

  2-1-3   92.12000000

 NUCLEAR CHARGE:                   18
 NUMBER OF PRIMITIVE AOS:          74
 NUMBER OF SYMMETRY AOS:           72
 NUMBER OF CONTRACTIONS:           45   (  33A'  +  12A"  )
 NUMBER OF CORE ORBITALS:           5   (   4A'  +   1A"  )
 NUMBER OF VALENCE ORBITALS:        6   (   5A'  +   1A"  )


 NUCLEAR REPULSION ENERGY   14.21494781


 Eigenvalues of metric

         1 0.617E-03 0.800E-03 0.878E-02 0.126E-01 0.351E-01 0.395E-01 0.439E-01 0.484E-01
         2 0.374E-01 0.988E-01 0.135E+00 0.475E+00 0.516E+00 0.561E+00 0.652E+00 0.720E+00


 Contracted 2-electron integrals neglected if value below      1.0D-11
 AO integral compression algorithm  1   Integral accuracy      1.0D-11

     1.835 MB (compressed) written to integral file ( 64.6%)


 NUMBER OF SORTED TWO-ELECTRON INTEGRALS:     291996.     BUFFER LENGTH:  32768
 NUMBER OF SEGMENTS:   1  SEGMENT LENGTH:     291996      RECORD LENGTH: 524288

 Memory used in sort:       0.85 MW

 SORT1 READ      392947. AND WROTE      257082. INTEGRALS IN      1 RECORDS. CPU TIME:     0.01 SEC, REAL TIME:     0.01 SEC
 SORT2 READ      257082. AND WROTE      291996. INTEGRALS IN      7 RECORDS. CPU TIME:     0.01 SEC, REAL TIME:     0.02 SEC

 FILE SIZES:   FILE 1:    21.0 MBYTE,  FILE 4:     4.2 MBYTE,   TOTAL:     25.2 MBYTE

 OPERATOR DM      FOR CENTER  0  COORDINATES:    0.000000    0.000000    0.000000


 **********************************************************************************************************************************
 DATASETS  * FILE   NREC   LENGTH (MB)   RECORD NAMES
              1      19       20.46       500      610      700      900      950      970     1000      129      960     1100   
                                          VAR    BASINP    GEOM    SYMINP    ZMAT    AOBASIS   BASIS     P2S    ABASIS      S 
                                         1400     1410     1200     1210     1080     1600     1650     1300     1700   
                                           T        V       H0       H01     AOSYM     SMH    MOLCAS    ERIS     OPER   

 PROGRAMS   *        TOTAL       INT
 CPU TIMES  *         0.18      0.08
 REAL TIME  *         0.31 SEC
 DISK USED  *        25.50 MB      
 **********************************************************************************************************************************


 PROGRAM * RHF-SCF (CLOSED SHELL)       Authors: W. Meyer, H.-J. Werner


 NUMBER OF ELECTRONS:       9+    9-    SPACE SYMMETRY=1    SPIN SYMMETRY: Singlet 
 CONVERGENCE THRESHOLDS:    1.00E-06 (Density)    1.00E-07 (Energy)
 MAX. NUMBER OF ITERATIONS:       60
 INTERPOLATION TYPE:            DIIS
 INTERPOLATION STEPS:              2 (START)      1 (STEP)
 LEVEL SHIFTS:                  0.00 (CLOSED)  0.00 (OPEN) 

 Number of closed-shell orbitals:    9 (   7   2 )


 Orbital guess generated from atomic densities. Full valence occupancy:    9   2

 Molecular orbital dump at record        2100.2

 ITERATION    DDIFF          GRAD             ENERGY        2-EL.EN.            DIPOLE MOMENTS         DIIS   ORB.
    1      0.000D+00      0.000D+00      -398.65985486    332.993723    0.00000    0.00000    0.77681    0    start
    2      0.000D+00      0.692D-02      -398.67606009    331.956621    0.00000    0.00000    0.33961    1    diag
    3      0.192D-01      0.211D-02      -398.67763264    332.307545    0.00000    0.00000    0.45018    2    diag
    4      0.373D-02      0.671D-03      -398.67791787    332.218917    0.00000   -0.00000    0.44709    3    diag
    5      0.186D-02      0.131D-03      -398.67792921    332.230309    0.00000    0.00000    0.44880    4    diag
    6      0.306D-03      0.216D-04      -398.67792948    332.225443    0.00000    0.00000    0.44916    5    diag
    7      0.540D-04      0.572D-05      -398.67792950    332.225924    0.00000   -0.00000    0.44912    6    diag
    8      0.226D-04      0.109D-05      -398.67792950    332.225910    0.00000   -0.00000    0.44908    7    diag
    9      0.418D-05      0.120D-06      -398.67792950    332.225919    0.00000   -0.00000    0.44908    8    diag
   10      0.393D-06      0.186D-07      -398.67792950    332.225918    0.00000   -0.00000    0.44908    0    orth

 Final occupancy:   7   2

 !RHF STATE 1.1 Energy               -398.677929502489
 Nuclear energy                        14.21494781
 One-electron energy                 -579.00583610
 Two-electron energy                  166.11295878
 Virial quotient                       -0.99908851
 !RHF STATE 1.1 Dipole moment           0.00000000    -0.00000000     0.44908293
 Dipole moment /Debye                   0.00000000    -0.00000000     1.14138019

 Orbital energies:

         1.1          2.1          3.1          4.1          5.1          6.1          7.1          8.1          9.1
    -91.952362    -8.962577    -6.645003    -6.643821    -1.022610    -0.625793    -0.510501     0.035470     0.061757

         1.2          2.2          3.2          4.2
     -6.640515    -0.386777     0.124059     0.319661

 HOMO      2.2    -0.386777 =     -10.5247eV
 LUMO      8.1     0.035470 =       0.9652eV
 LUMO-HOMO         0.422247 =      11.4899eV


 **********************************************************************************************************************************
 DATASETS  * FILE   NREC   LENGTH (MB)   RECORD NAMES
              1      19       20.46       500      610      700      900      950      970     1000      129      960     1100   
                                          VAR    BASINP    GEOM    SYMINP    ZMAT    AOBASIS   BASIS     P2S    ABASIS      S 
                                         1400     1410     1200     1210     1080     1600     1650     1300     1700   
                                           T        V       H0       H01     AOSYM     SMH    MOLCAS    ERIS     OPER   

              2       4        2.79       700     1000      520     2100   
                                         GEOM     BASIS   MCVARS     RHF  

 PROGRAMS   *        TOTAL        HF       INT
 CPU TIMES  *         0.23      0.05      0.08
 REAL TIME  *         0.36 SEC
 DISK USED  *        25.50 MB      
 **********************************************************************************************************************************


 PROGRAM * MULTI (Direct Multiconfiguration SCF)       Authors: P.J. Knowles, H.-J. Werner (1984)     S.T. Elbert (1988)


 Number of closed-shell orbitals:   5 (   4   1 )
 Number of active  orbitals:        7 (   6   1 )
 Number of external orbitals:      33 (  23  10 )

 State symmetry 1

 Number of electrons:     8    Spin symmetry=Singlet   Space symmetry=2
 Number of states:        2
 Number of CSFs:        210   (600 determinants, 1225 intermediate states)

 Molecular orbitals read from record     2100.2  Type=RHF/CANONICAL (state 1.1)

 Wavefunction dump at record             2140.2

 Convergence thresholds  0.10E-01 (gradient)  0.10E-05 (energy)  0.10E-02 (step length)

 Weight factors for state symmetry  1:    0.50000   0.50000

 Number of orbital rotations:      275   (    25 Core/Active    102 Core/Virtual   0 Active/Active    148 Active/Virtual)
 Total number of variables:       1475


 ITER. MIC  NCI  NEG     ENERGY(VAR)     ENERGY(PROJ)   ENERGY CHANGE     GRAD(0)  GRAD(ORB)   GRAD(CI)     STEP       TIME

   1  140   21    0    -398.38931267    -398.46917911   -0.07986644    0.27789252 0.00168513 0.00198291  0.13D+01      0.09
   2   37   25    0    -398.45391568    -398.46153230   -0.00761662    0.11713387 0.00000284 0.00002297  0.41D+00      0.15
   3   37   21    0    -398.46169516    -398.46170699   -0.00001183    0.00325880 0.00000064 0.00000556  0.19D-01      0.21
   4   38    9    0    -398.46170700    -398.46170700   -0.00000000    0.00000533 0.00000022 0.00000222  0.28D-04      0.24

 ** WVFN ****  CONVERGENCE REACHED, FINAL GRADIENT:  0.10D-06



 Results for state 1.2
 =====================

 !MCSCF STATE 1.2 Energy             -398.476438352369
 Nuclear energy                        14.21494781
 Kinetic energy                       398.69383845
 One electron energy                 -575.36249727
 Two electron energy                  162.67111110
 Virial ratio                           1.99945472

 !MCSCF STATE 1.2 Dipole moment         0.00000000     0.00000009    -1.31008387
 Dipole moment /Debye                   0.00000000     0.00000023    -3.32968297

 Results for state 2.2
 =====================

 !MCSCF STATE 2.2 Energy             -398.446975643578
 Nuclear energy                        14.21494781
 Kinetic energy                       399.20638414
 One electron energy                 -577.87905898
 Two electron energy                  165.21713552
 Virial ratio                           1.99809770

 !MCSCF STATE 2.2 Dipole moment         0.00000000     0.00000010     0.49261756
 Dipole moment /Debye                   0.00000000     0.00000024     1.25202693

 State-averaged charge density matrix saved on record  2140.2 (density set 1)

 !MCSCF expec         <1.2|DMY|1.2>     0.000000090231 au =     0.000000229330 Debye
 !MCSCF trans         <2.2|DMY|1.2>    -0.314736361796 au =    -0.799927642414 Debye
 !MCSCF expec         <2.2|DMY|2.2>     0.000000095997 au =     0.000000243985 Debye

 !MCSCF expec         <1.2|DMZ|1.2>    -1.310083871590 au =    -3.329682966355 Debye
 !MCSCF trans         <2.2|DMZ|1.2>     0.000000162656 au =     0.000000413403 Debye
 !MCSCF expec         <2.2|DMZ|2.2>     0.492617556860 au =     1.252026930164 Debye


 Natural orbital dump (state averaged) at molpro section  2140.2    (Orbital set 2)



 **********************************************************************************************************************************
 DATASETS  * FILE   NREC   LENGTH (MB)   RECORD NAMES
              1      20       21.54       500      610      700      900      950      970     1000      129      960     1100   
                                          VAR    BASINP    GEOM    SYMINP    ZMAT    AOBASIS   BASIS     P2S    ABASIS      S 
                                         1400     1410     1200     1210     1080     1600     1650     1300     1700     1380   
                                           T        V       H0       H01     AOSYM     SMH    MOLCAS    ERIS     OPER     JKOP   

              2       5        5.33       700     1000      520     2100     2140   
                                         GEOM     BASIS   MCVARS     RHF     MCSCF   

 PROGRAMS   *        TOTAL     MULTI        HF       INT
 CPU TIMES  *         0.51      0.28      0.05      0.08
 REAL TIME  *         0.70 SEC
 DISK USED  *        34.97 MB      
 **********************************************************************************************************************************


 PROGRAM * CI (Multireference internally contracted CI)     Authors: H.-J. Werner, P.J. Knowles, 1987


 Convergence thresholds:  THRVAR = 1.00D-10  THRDEN = 1.00D-08

 Number of optimized states:  2  Roots:   1   2
 Number of reference states:  2  Roots:   1   2

 Reference symmetry:                   2   Singlet 
 Number of electrons:                 18
 Maximum number of shells:             5
 Maximum number of spin couplings:    14

 Reference space:      126 conf      210 CSFs
 N elec internal:      357 conf      490 CSFs
 N-1 el internal:      393 conf      784 CSFs
 N-2 el internal:      267 conf      868 CSFs

 Number of electrons in valence space:                      8
 Maximum number of open shell orbitals in reference space:  6
 Maximum number of open shell orbitals in internal spaces:  8


 Number of core orbitals:           5 (   4   1 )
 Number of active  orbitals:        7 (   6   1 )
 Number of external orbitals:      33 (  23  10 )

 Molecular orbitals read from record     2140.2  Type=MCSCF/NATURAL (state averaged)

 Coulomb and exchange operators available. No transformation done.

 Number of p-space configurations:   3

 Reference wavefunction optimized for reference space (refopt=1)

 State     Reference Energy 
   1        -398.47643835
   2        -398.44697564

 Number of blocks in overlap matrix:     4   Smallest eigenvalue:  0.34D-03
 Number of N-2 electron functions:      96
 Number of N-1 electron functions:     784

 Number of internal configurations:                  210
 Number of singly external configurations:         12572
 Number of doubly external configurations:         28362
 Total number of contracted configurations:        41144
 Total number of uncontracted configurations:     253624

 Diagonal Coupling coefficients finished.               Storage:   89641 words, CPU-Time:      0.04 seconds.
 Energy denominators for pairs finished in 1 passes.    Storage:   28267 words, CPU-time:      0.00 seconds.

  ITER. STATE  ROOT     SQ.NORM     CORR.ENERGY   TOTAL ENERGY   ENERGY CHANGE       DEN1      VAR(S)    VAR(P)      TIME
    1     1     1     1.00000000     0.00000000  -398.47643835    -0.00000000    -0.12224418  0.29D-01  0.23D-01     0.08
    1     2     2     1.00000000     0.00000000  -398.44697564     0.00000000    -0.13258886  0.30D-01  0.28D-01     0.08
    2     1     1     1.05881402    -0.12965239  -398.60609074    -0.12965239    -0.00471699  0.15D-02  0.85D-03     0.43
    2     2     2     1.06302892    -0.13875223  -398.58572787    -0.13875223    -0.00534438  0.13D-02  0.11D-02     0.43
    3     1     1     1.06353865    -0.13507278  -398.61151114    -0.00542040    -0.00043821  0.15D-03  0.80D-04     0.76
    3     2     2     1.06836189    -0.14480305  -398.59177870    -0.00605083    -0.00043079  0.98D-04  0.94D-04     0.76
    4     1     1     1.06595468    -0.13561945  -398.61205780    -0.00054667    -0.00006248  0.31D-04  0.98D-05     1.11
    4     2     2     1.07062511    -0.14533718  -398.59231282    -0.00053413    -0.00004433  0.11D-04  0.90D-05     1.11
    5     1     1     1.06674929    -0.13570139  -398.61213974    -0.00008194    -0.00001095  0.55D-05  0.15D-05     1.45
    5     2     2     1.07100080    -0.14539202  -398.59236766    -0.00005484    -0.00000594  0.17D-05  0.12D-05     1.45
    6     1     1     1.06699437    -0.13571601  -398.61215436    -0.00001462    -0.00000217  0.99D-06  0.30D-06     1.78
    6     2     2     1.07104055    -0.14539937  -398.59237502    -0.00000736    -0.00000093  0.25D-06  0.19D-06     1.78
    7     1     1     1.06711848    -0.13571872  -398.61215708    -0.00000272    -0.00000046  0.29D-06  0.51D-07     2.12
    7     2     2     1.07106997    -0.14540052  -398.59237616    -0.00000115    -0.00000016  0.58D-07  0.30D-07     2.12
    8     1     1     1.06717286    -0.13571926  -398.61215762    -0.00000054    -0.00000011  0.62D-07  0.11D-07     2.46
    8     2     2     1.07107816    -0.14540072  -398.59237636    -0.00000020    -0.00000003  0.12D-07  0.54D-08     2.46
    9     1     1     1.06719805    -0.13571939  -398.61215774    -0.00000013    -0.00000003  0.15D-07  0.30D-08     2.80
    9     2     2     1.07108044    -0.14540076  -398.59237640    -0.00000004    -0.00000001  0.31D-08  0.11D-08     2.80
   10     1     1     1.06721116    -0.13571942  -398.61215778    -0.00000003    -0.00000001  0.42D-08  0.66D-09     3.15
   10     2     2     1.07108200    -0.14540076  -398.59237641    -0.00000001    -0.00000000  0.86D-09  0.23D-09     3.15
   11     1     1     1.06721725    -0.13571943  -398.61215778    -0.00000001    -0.00000000  0.11D-08  0.16D-09     3.48
   11     2     2     1.07108264    -0.14540077  -398.59237641    -0.00000000    -0.00000000  0.25D-09  0.51D-10     3.48
   12     1     1     1.06722029    -0.13571943  -398.61215779    -0.00000000    -0.00000000  0.28D-09  0.44D-10     3.81
   12     2     2     1.07108306    -0.14540077  -398.59237641    -0.00000000    -0.00000000  0.82D-10  0.12D-10     3.81
   13     1     1     1.06722182    -0.13571943  -398.61215779    -0.00000000    -0.00000000  0.79D-10  0.11D-10     4.06
   13     2     2     1.07108306    -0.14540077  -398.59237641    -0.00000000    -0.00000000  0.82D-10  0.12D-10     4.06


 =====================================
 Analysis of CPU times by interactions
 =====================================

       I      S      P

 I   1.2%
 S   0.5%   5.9%
 P   4.9%  21.4%  45.3%

 Initialization:   1.2%
 Other:           19.5%

 Total CPU:        4.1 seconds
 =====================================



 Reference coefficients greater than 0.0500000
 =============================================
 2220/0\           0.9597099  -0.0000000
 222/00\           0.0000000   0.9593212
 22/\0/\          -0.0000000  -0.0759585
 22/0\/\          -0.0682532  -0.0000000
 22//0\\           0.0000000   0.0556937

 Coefficients of fixed reference functions:
 ==========================================

 State      Coefficients
   1         0.967459    0.000000
   2         0.000000    0.965823

 Coefficients of rotated reference functions:
 ============================================

 State      Coefficients
   1         0.967459    0.000000
   2         0.000000    0.965823



 RESULTS FOR STATE 1.2
 =====================

 Coefficient of reference function:   C(0) = 0.96745886 (fixed)   0.96799397 (relaxed)   0.96745886 (rotated)

 Energy contributions of configuration classes

 CLASS          SQ.NORM        ECORR1        ECORR2
 +++++++++++++++++++++++++++++++++++++++++++++++++++
 Internals    0.00110652    0.00000000   -0.00014056
 Singles      0.03328866   -0.05400824   -0.05477910
 Pairs        0.03400754   -0.08171119   -0.08079977
 Total        1.06840272   -0.13571943   -0.13571943
 +++++++++++++++++++++++++++++++++++++++++++++++++++


 Reference energy                    -398.47643835
 Nuclear energy                        14.21494781
 Kinetic energy                       398.97257542
 One electron energy                 -575.65168172
 Two electron energy                  162.82457612
 Virial quotient                       -0.99909664
 Correlation energy                    -0.13571943
 !MRCI STATE 1.2 Energy              -398.612157785519

 Properties without orbital relaxation:

 !MRCI STATE 1.2 Dipole moment          0.00000000     0.00000006    -1.12684738
 Dipole moment /Debye                   0.00000000     0.00000015    -2.86397276

 Cluster corrected energies          -398.62144136 (Davidson, fixed reference)
 Cluster corrected energies          -398.62128109 (Davidson, relaxed reference)
 Cluster corrected energies          -398.62144136 (Davidson, rotated reference)

 Cluster corrected energies          -398.61936027 (Pople, fixed reference)
 Cluster corrected energies          -398.61923183 (Pople, relaxed reference)
 Cluster corrected energies          -398.61936027 (Pople, rotated reference)


 Cluster corrections using rotated reference energy:

 Reference energy (rotated)          -398.47643835
 MRCI Correlation energy               -0.13571943

 Cluster corrected energies          -398.62128109 (Davidson, relaxed reference)
 Cluster corrected energies          -398.62144136 (Davidson, rotated reference)

 Cluster corrected energies          -398.61923183 (Pople, relaxed reference)
 Cluster corrected energies          -398.61936027 (Pople, rotated reference)




 RESULTS FOR STATE 2.2
 =====================

 Coefficient of reference function:   C(0) = 0.96582336 (fixed)   0.96624759 (relaxed)   0.96582336 (rotated)

 Energy contributions of configuration classes

 CLASS          SQ.NORM        ECORR1        ECORR2
 +++++++++++++++++++++++++++++++++++++++++++++++++++
 Internals    0.00087868   -0.00000000   -0.00011918
 Singles      0.03102077   -0.04990173   -0.05075648
 Pairs        0.04012475   -0.09549903   -0.09452511
 Total        1.07202419   -0.14540077   -0.14540077
 +++++++++++++++++++++++++++++++++++++++++++++++++++


 Reference energy                    -398.44697564
 Nuclear energy                        14.21494781
 Kinetic energy                       399.06243189
 One electron energy                 -577.30028336
 Two electron energy                  164.49295914
 Virial quotient                       -0.99882210
 Correlation energy                    -0.14540077
 !MRCI STATE 2.2 Energy              -398.592376410739

 Properties without orbital relaxation:

 !MRCI STATE 2.2 Dipole moment          0.00000000     0.00000006     0.38314367
 Dipole moment /Debye                   0.00000000     0.00000015     0.97379028

 Cluster corrected energies          -398.60284878 (Davidson, fixed reference)
 Cluster corrected energies          -398.60271194 (Davidson, relaxed reference)
 Cluster corrected energies          -398.60284878 (Davidson, rotated reference)

 Cluster corrected energies          -398.60051560 (Pople, fixed reference)
 Cluster corrected energies          -398.60040555 (Pople, relaxed reference)
 Cluster corrected energies          -398.60051560 (Pople, rotated reference)


 Cluster corrections using rotated reference energy:

 Reference energy (rotated)          -398.44697564
 MRCI Correlation energy               -0.14540077

 Cluster corrected energies          -398.60271194 (Davidson, relaxed reference)
 Cluster corrected energies          -398.60284878 (Davidson, rotated reference)

 Cluster corrected energies          -398.60040555 (Pople, relaxed reference)
 Cluster corrected energies          -398.60051560 (Pople, rotated reference)


 !MRCI trans          <2.2|DMY|1.2>    -0.290210467228 au =    -0.737593119296 Debye
 !MRCI trans          <2.2|DMZ|1.2>     0.000000101736 au =     0.000000258569 Debye


 **********************************************************************************************************************************
 DATASETS  * FILE   NREC   LENGTH (MB)   RECORD NAMES
              1      20       21.54       500      610      700      900      950      970     1000      129      960     1100   
                                          VAR    BASINP    GEOM    SYMINP    ZMAT    AOBASIS   BASIS     P2S    ABASIS      S 
                                         1400     1410     1200     1210     1080     1600     1650     1300     1700     1380   
                                           T        V       H0       H01     AOSYM     SMH    MOLCAS    ERIS     OPER     JKOP   

              2       5        5.33       700     1000      520     2100     2140   
                                         GEOM     BASIS   MCVARS     RHF     MCSCF   

 PROGRAMS   *        TOTAL        CI     MULTI        HF       INT
 CPU TIMES  *         4.66      4.15      0.28      0.05      0.08
 REAL TIME  *         4.94 SEC
 DISK USED  *        34.97 MB      
 **********************************************************************************************************************************


 PROGRAM * CI (Multireference internally contracted CI)     Authors: H.-J. Werner, P.J. Knowles, 1987


 Convergence thresholds:  THRVAR = 1.00D-10  THRDEN = 1.00D-08

 Number of optimized states:  1  Roots:   1
 Number of reference states:  2  Roots:   1   2

 Reference symmetry:                   2   Singlet 
 Number of electrons:                 18
 Maximum number of shells:             5
 Maximum number of spin couplings:    14

 Reference space:      126 conf      210 CSFs
 N elec internal:      357 conf      490 CSFs
 N-1 el internal:      393 conf      784 CSFs
 N-2 el internal:      267 conf      868 CSFs

 Number of electrons in valence space:                      8
 Maximum number of open shell orbitals in reference space:  6
 Maximum number of open shell orbitals in internal spaces:  8


 Number of core orbitals:           5 (   4   1 )
 Number of active  orbitals:        7 (   6   1 )
 Number of external orbitals:      33 (  23  10 )

 Molecular orbitals read from record     2140.2  Type=MCSCF/NATURAL (state averaged)

 Coulomb and exchange operators available. No transformation done.

 Number of p-space configurations:   3

 Reference wavefunction optimized for reference space (refopt=1)

 State     Reference Energy 
   1        -398.47643835
   2        -398.44697564

 Number of blocks in overlap matrix:     4   Smallest eigenvalue:  0.34D-03
 Number of N-2 electron functions:      96
 Number of N-1 electron functions:     784

 Number of internal configurations:                  210
 Number of singly external configurations:         12572
 Number of doubly external configurations:         28362
 Total number of contracted configurations:        41144
 Total number of uncontracted configurations:     253624

 Diagonal Coupling coefficients finished.               Storage:   89641 words, CPU-Time:      0.04 seconds.
 Energy denominators for pairs finished in 1 passes.    Storage:   28267 words, CPU-time:      0.00 seconds.

  ITER. STATE  ROOT     SQ.NORM     CORR.ENERGY   TOTAL ENERGY   ENERGY CHANGE       DEN1      VAR(S)    VAR(P)      TIME
    1     1     1     1.00000000     0.00000000  -398.47643835    -0.00000000    -0.12224418  0.29D-01  0.23D-01     0.08
    2     1     1     1.05881400    -0.12965239  -398.60609074    -0.12965239    -0.00471699  0.15D-02  0.85D-03     0.32
    3     1     1     1.06353865    -0.13507278  -398.61151114    -0.00542040    -0.00043821  0.15D-03  0.80D-04     0.56
    4     1     1     1.06595469    -0.13561945  -398.61205780    -0.00054667    -0.00006248  0.31D-04  0.98D-05     0.80
    5     1     1     1.06684869    -0.13570251  -398.61214086    -0.00008305    -0.00001028  0.47D-05  0.15D-05     1.04
    6     1     1     1.06709840    -0.13571682  -398.61215517    -0.00001431    -0.00000170  0.67D-06  0.27D-06     1.28
    7     1     1     1.06717795    -0.13571909  -398.61215744    -0.00000227    -0.00000023  0.85D-07  0.38D-07     1.52
    8     1     1     1.06720811    -0.13571938  -398.61215774    -0.00000030    -0.00000003  0.15D-07  0.49D-08     1.76
    9     1     1     1.06721687    -0.13571942  -398.61215778    -0.00000004    -0.00000001  0.28D-08  0.82D-09     1.99
   10     1     1     1.06722053    -0.13571943  -398.61215778    -0.00000001    -0.00000000  0.48D-09  0.15D-09     2.22
   11     1     1     1.06722222    -0.13571943  -398.61215779    -0.00000000    -0.00000000  0.69D-10  0.25D-10     2.46


 =====================================
 Analysis of CPU times by interactions
 =====================================

       I      S      P

 I   0.8%
 S   0.4%   3.7%
 P   7.7%  24.4%  45.9%

 Initialization:   2.4%
 Other:           14.6%

 Total CPU:        2.5 seconds
 =====================================



 Reference coefficients greater than 0.0500000
 =============================================
 2220/0\           0.9597096
 22/0\/\          -0.0682533

 Coefficients of fixed reference functions:
 ==========================================

 State      Coefficients
   1         0.967459   -0.000000

 Coefficients of rotated reference functions:
 ============================================

 State      Coefficients
   1         0.967459



 RESULTS FOR STATE 1.2
 =====================

 Coefficient of reference function:   C(0) = 0.96745858 (fixed)   0.96799379 (relaxed)   0.96745858 (rotated)

 Energy contributions of configuration classes

 CLASS          SQ.NORM        ECORR1        ECORR2
 +++++++++++++++++++++++++++++++++++++++++++++++++++
 Internals    0.00110673    0.00000000   -0.00014059
 Singles      0.03328900   -0.05400809   -0.05477910
 Pairs        0.03400762   -0.08171134   -0.08079974
 Total        1.06840334   -0.13571943   -0.13571943
 +++++++++++++++++++++++++++++++++++++++++++++++++++


 Reference energy                    -398.47643835
 Nuclear energy                        14.21494781
 Kinetic energy                       398.97257815
 One electron energy                 -575.65169903
 Two electron energy                  162.82459343
 Virial quotient                       -0.99909663
 Correlation energy                    -0.13571943
 !MRCI STATE 1.2 Energy              -398.612157785458

 Properties without orbital relaxation:

 !MRCI STATE 1.2 Dipole moment          0.00000000     0.00000006    -1.12683744
 Dipole moment /Debye                   0.00000000     0.00000015    -2.86394750

 Cluster corrected energies          -398.62144145 (Davidson, fixed reference)
 Cluster corrected energies          -398.62128115 (Davidson, relaxed reference)
 Cluster corrected energies          -398.62144145 (Davidson, rotated reference)

 Cluster corrected energies          -398.61936034 (Pople, fixed reference)
 Cluster corrected energies          -398.61923188 (Pople, relaxed reference)
 Cluster corrected energies          -398.61936034 (Pople, rotated reference)


 Cluster corrections using rotated reference energy:

 Reference energy (rotated)          -398.47643835
 MRCI Correlation energy               -0.13571943

 Cluster corrected energies          -398.62128115 (Davidson, relaxed reference)
 Cluster corrected energies          -398.62144145 (Davidson, rotated reference)

 Cluster corrected energies          -398.61923188 (Pople, relaxed reference)
 Cluster corrected energies          -398.61936034 (Pople, rotated reference)



 **********************************************************************************************************************************
 DATASETS  * FILE   NREC   LENGTH (MB)   RECORD NAMES
              1      20       21.54       500      610      700      900      950      970     1000      129      960     1100   
                                          VAR    BASINP    GEOM    SYMINP    ZMAT    AOBASIS   BASIS     P2S    ABASIS      S 
                                         1400     1410     1200     1210     1080     1600     1650     1300     1700     1380   
                                           T        V       H0       H01     AOSYM     SMH    MOLCAS    ERIS     OPER     JKOP   

              2       5        5.33       700     1000      520     2100     2140   
                                         GEOM     BASIS   MCVARS     RHF     MCSCF   

 PROGRAMS   *        TOTAL        CI        CI     MULTI        HF       INT
 CPU TIMES  *         7.18      2.52      4.15      0.28      0.05      0.08
 REAL TIME  *         7.50 SEC
 DISK USED  *        36.57 MB      
 **********************************************************************************************************************************


 Computing numerical gradient using default procedure for command CI

 *** Long output written to logfile /home/user/ahs/molpro_egrad/ex19_mrci_refstate_h2s.log ***


 Running default procedure: MULTI000  CI
 

 Numerical gradient for MRCI

 Total Energy          -398.61215779  Dipole moments:    0.000000    0.000000   -1.126837

 Variable       Value            Gradient       Hessian                Dipole gradient
 R1             2.300 BOHR    -0.12472560     0.38424753      0.000000   -4.609861    0.220218

 Variable       Value            Gradient       Hessian                Dipole gradient
 R2             2.300 BOHR    -0.12472560     0.38424752      0.000000    4.609861    0.220218

 Variable       Value            Gradient       Hessian                Dipole gradient
 A1            92.120 DEG     -0.00015105     0.00005084      0.000000    0.000000    0.019214

 Recomputing wavefunction at initial geometry


 **********************************************************************************************************************************
 DATASETS  * FILE   NREC   LENGTH (MB)   RECORD NAMES
              1      20       21.54       500      610      700      900      950      970     1000      129      960     1100   
                                          VAR    BASINP    GEOM    SYMINP    ZMAT    AOBASIS   BASIS     P2S    ABASIS      S 
                                         1400     1410     1200     1210     1080     1600     1650     1300     1700     1380   
                                           T        V       H0       H01     AOSYM     SMH    MOLCAS    ERIS     OPER     JKOP   

              2       6        5.35       700     1000      520     2100     2140     5600   
                                         GEOM     BASIS   MCVARS     RHF     MCSCF    GINFO   

 PROGRAMS   *        TOTAL    FORCES     MULTI       INT        CI        CI     MULTI        HF       INT
 CPU TIMES  *        31.94      2.56      0.07     22.13      2.52      4.15      0.28      0.05      0.08
 REAL TIME  *        33.86 SEC
 DISK USED  *        42.55 MB      
 **********************************************************************************************************************************


 PROGRAM * CI (Multireference internally contracted CI)     Authors: H.-J. Werner, P.J. Knowles, 1987


 Convergence thresholds:  THRVAR = 1.00D-10  THRDEN = 1.00D-08

 Number of optimized states:  1  Roots:   2
 Number of reference states:  2  Roots:   1   2

 Reference symmetry:                   2   Singlet 
 Number of electrons:                 18
 Maximum number of shells:             5
 Maximum number of spin couplings:    14

 Reference space:      126 conf      210 CSFs
 N elec internal:      357 conf      490 CSFs
 N-1 el internal:      393 conf      784 CSFs
 N-2 el internal:      267 conf      868 CSFs

 Number of electrons in valence space:                      8
 Maximum number of open shell orbitals in reference space:  6
 Maximum number of open shell orbitals in internal spaces:  8


 Number of core orbitals:           5 (   4   1 )
 Number of active  orbitals:        7 (   6   1 )
 Number of external orbitals:      33 (  23  10 )

 Molecular orbitals read from record     2140.2  Type=MCSCF/NATURAL (state averaged)

 Coulomb and exchange operators available. No transformation done.

 Number of p-space configurations:   3

 Reference wavefunction optimized for reference space (refopt=1)

 State     Reference Energy 
   2        -398.44697565
   1        -398.47643835

 Number of blocks in overlap matrix:     4   Smallest eigenvalue:  0.34D-03
 Number of N-2 electron functions:      96
 Number of N-1 electron functions:     784

 Number of internal configurations:                  210
 Number of singly external configurations:         12572
 Number of doubly external configurations:         28362
 Total number of contracted configurations:        41144
 Total number of uncontracted configurations:     253624

 Diagonal Coupling coefficients finished.               Storage:   89641 words, CPU-Time:      0.05 seconds.
 Energy denominators for pairs finished in 1 passes.    Storage:   28267 words, CPU-time:      0.00 seconds.

  ITER. STATE  ROOT     SQ.NORM     CORR.ENERGY   TOTAL ENERGY   ENERGY CHANGE       DEN1      VAR(S)    VAR(P)      TIME
    1     1     2     1.00000000     0.00000000  -398.44697565     0.00000000    -0.13258887  0.30D-01  0.28D-01     0.09
    2     1     1     1.06302892    -0.13875222  -398.58572787    -0.13875222    -0.00534438  0.13D-02  0.11D-02     0.33
    3     1     1     1.06836191    -0.14480305  -398.59177870    -0.00605083    -0.00043079  0.98D-04  0.94D-04     0.57
    4     1     1     1.07062513    -0.14533718  -398.59231283    -0.00053413    -0.00004433  0.11D-04  0.90D-05     0.82
    5     1     1     1.07105098    -0.14539246  -398.59236811    -0.00005528    -0.00000564  0.15D-05  0.12D-05     1.06
    6     1     1     1.07108013    -0.14539961  -398.59237526    -0.00000715    -0.00000078  0.21D-06  0.16D-06     1.30
    7     1     1     1.07107992    -0.14540060  -398.59237625    -0.00000099    -0.00000011  0.32D-07  0.22D-07     1.55
    8     1     1     1.07108188    -0.14540074  -398.59237639    -0.00000014    -0.00000001  0.50D-08  0.29D-08     1.79
    9     1     1     1.07108251    -0.14540076  -398.59237641    -0.00000002    -0.00000000  0.10D-08  0.38D-09     2.03
   10     1     1     1.07108272    -0.14540076  -398.59237641    -0.00000000    -0.00000000  0.24D-09  0.64D-10     2.26
   11     1     1     1.07108308    -0.14540077  -398.59237641    -0.00000000    -0.00000000  0.62D-10  0.14D-10     2.50


 =====================================
 Analysis of CPU times by interactions
 =====================================

       I      S      P

 I   1.6%
 S   0.4%   4.4%
 P   4.0%  25.6%  47.2%

 Initialization:   2.8%
 Other:           14.0%

 Total CPU:        2.5 seconds
 =====================================



 Reference coefficients greater than 0.0500000
 =============================================
 222/00\           0.9593212
 22/\0/\          -0.0759585
 22//0\\           0.0556936

 Coefficients of fixed reference functions:
 ==========================================

 State      Coefficients
   1         0.965823    0.000000

 Coefficients of rotated reference functions:
 ============================================

 State      Coefficients
   1         0.965823



 RESULTS FOR STATE 2.2
 =====================

 Coefficient of reference function:   C(0) = 0.96582335 (fixed)   0.96624758 (relaxed)   0.96582335 (rotated)

 Energy contributions of configuration classes

 CLASS          SQ.NORM        ECORR1        ECORR2
 +++++++++++++++++++++++++++++++++++++++++++++++++++
 Internals    0.00087869   -0.00000000   -0.00011918
 Singles      0.03102063   -0.04990163   -0.05075645
 Pairs        0.04012491   -0.09549913   -0.09452513
 Total        1.07202423   -0.14540076   -0.14540077
 +++++++++++++++++++++++++++++++++++++++++++++++++++


 Reference energy                    -398.44697565
 Nuclear energy                        14.21494781
 Kinetic energy                       399.06243032
 One electron energy                 -577.30028462
 Two electron energy                  164.49296039
 Virial quotient                       -0.99882210
 Correlation energy                    -0.14540077
 !MRCI STATE 2.2 Energy              -398.592376414860

 Properties without orbital relaxation:

 !MRCI STATE 2.2 Dipole moment          0.00000000     0.00000002     0.38314166
 Dipole moment /Debye                   0.00000000     0.00000004     0.97378517

 Cluster corrected energies          -398.60284879 (Davidson, fixed reference)
 Cluster corrected energies          -398.60271195 (Davidson, relaxed reference)
 Cluster corrected energies          -398.60284879 (Davidson, rotated reference)

 Cluster corrected energies          -398.60051560 (Pople, fixed reference)
 Cluster corrected energies          -398.60040555 (Pople, relaxed reference)
 Cluster corrected energies          -398.60051560 (Pople, rotated reference)


 Cluster corrections using rotated reference energy:

 Reference energy (rotated)          -398.44697565
 MRCI Correlation energy               -0.14540077

 Cluster corrected energies          -398.60271195 (Davidson, relaxed reference)
 Cluster corrected energies          -398.60284879 (Davidson, rotated reference)

 Cluster corrected energies          -398.60040555 (Pople, relaxed reference)
 Cluster corrected energies          -398.60051560 (Pople, rotated reference)



 **********************************************************************************************************************************
 DATASETS  * FILE   NREC   LENGTH (MB)   RECORD NAMES
              1      20       21.54       500      610      700      900      950      970     1000      129      960     1100   
                                          VAR    BASINP    GEOM    SYMINP    ZMAT    AOBASIS   BASIS     P2S    ABASIS      S 
                                         1400     1410     1200     1210     1080     1600     1650     1300     1700     1380   
                                           T        V       H0       H01     AOSYM     SMH    MOLCAS    ERIS     OPER     JKOP   

              2       6        5.35       700     1000      520     2100     2140     5600   
                                         GEOM     BASIS   MCVARS     RHF     MCSCF    GINFO   

 PROGRAMS   *        TOTAL        CI        CI     MULTI       INT        CI        CI     MULTI        HF       INT
 CPU TIMES  *        34.49      2.55      2.56      0.07     22.13      2.52      4.15      0.28      0.05      0.08
 REAL TIME  *        36.45 SEC
 DISK USED  *        42.55 MB      
 **********************************************************************************************************************************


 Computing numerical gradient using default procedure for command CI

 Running default procedure: MULTI000  CI
 
 
 ? Error
 ? No convergence. This error exit can be avoided using the NOCHECK option
 ? The problem occurs in cipro

 GLOBAL ERROR fehler on processor   0                                         
